 argument  1 = H2COWat_VEMExc_CISHF.nw
 


============================== echo of input deck ==============================
# COSMO-VEM solvation results
# excitation spectrum data:  GS = initial state, ES = final state
# iteration #3
# (1)          GS equilibrium total free energy =      -113.9129453243
# (2)               GS polarization free energy =        -0.0189146916 (   -0.5147 eV)
# (3)                 GSRF ES total free energy =      -113.7289355322
# (4)          GSRF ES polarization free energy =        -0.0049921325 (   -0.1358 eV)
# (5)          GSRF excitation energy (3) - (1) =         0.1840097921 (    5.0072 eV)
# (6)                  VEM ES total free energy =      -113.7329062888
# (7)           VEM ES polarization free energy =        -0.0079252246 (   -0.2157 eV)
# (8)        fast polarization component of (7) =        -0.0051804833 (   -0.1410 eV)
# (9)                 1/2 * delV * delQdyn term =        -0.0029330921 (   -0.0798 eV)
# (10) VEM vertical excitation energy (6) - (1) =         0.1800390355 (    4.8991 eV)
#
echo 'VEM/SMD/CIS-HF/6-311+G(d) vertical excitation energy - formaldehyde in water with eps=78.4 and epsopt=1.8'

start H2COWat_VEMExc_CISHF

geometry nocenter
  O    0.0000000000    0.0000000000    0.6743110000
  C    0.0000000000    0.0000000000   -0.5278530000
  H    0.0000000000    0.9370330000   -1.1136860000
  H    0.0000000000   -0.9370330000   -1.1136860000
symmetry c1
end

basis
 * library 6-311+G*
end

dft
 XC HFexch
end

cosmo
 do_cosmo_smd true
 do_cosmo_vem 1
 solvent h2o
 dielec 78.4
 dielecinf 1.8
end

tddft
 cis
 nroots 10
 target 1
 singlet
 notriplet
 algorithm 1
 civecs
 grad
  root 1
  solve_thresh 1d-05
 end
end
task tddft gradient
================================================================================


                                         
                                         
 
 
              Northwest Computational Chemistry Package (NWChem) 6.6
              ------------------------------------------------------
 
 
                    Environmental Molecular Sciences Laboratory
                       Pacific Northwest National Laboratory
                                Richland, WA 99352
 
                              Copyright (c) 1994-2015
                       Pacific Northwest National Laboratory
                            Battelle Memorial Institute
 
             NWChem is an open-source computational chemistry package
                        distributed under the terms of the
                      Educational Community License (ECL) 2.0
             A copy of the license is included with this distribution
                              in the LICENSE.TXT file
 
                                  ACKNOWLEDGMENT
                                  --------------

            This software and its documentation were developed at the
            EMSL at Pacific Northwest National Laboratory, a multiprogram
            national laboratory, operated for the U.S. Department of Energy
            by Battelle under Contract Number DE-AC05-76RL01830. Support
            for this work was provided by the Department of Energy Office
            of Biological and Environmental Research, Office of Basic
            Energy Sciences, and the Office of Advanced Scientific Computing.


           Job information
           ---------------

    hostname        = orion
    program         = ../../../bin/LINUX64/nwchem
    date            = Tue Jan  5 15:01:47 2016

    compiled        = Tue_Jan_05_10:00:26_2016
    source          = /home/niri/nwchem/nwchem-trunk
    nwchem branch   = Development
    nwchem revision = 27715
    ga revision     = 10587
    input           = H2COWat_VEMExc_CISHF.nw
    prefix          = H2COWat_VEMExc_CISHF.
    data base       = ./H2COWat_VEMExc_CISHF.db
    status          = startup
    nproc           =        4
    time left       =     -1s



           Memory information
           ------------------

    heap     =   13107200 doubles =    100.0 Mbytes
    stack    =   13107197 doubles =    100.0 Mbytes
    global   =   26214400 doubles =    200.0 Mbytes (distinct from heap & stack)
    total    =   52428797 doubles =    400.0 Mbytes
    verify   = yes
    hardfail = no 


           Directory information
           ---------------------
 
  0 permanent = .
  0 scratch   = .
 
 
 
 
                                NWChem Input Module
                                -------------------
 
 

 Scaling coordinates for geometry "geometry" by  1.889725989
 (inverse scale =  0.529177249)

 Turning off AUTOSYM since
 SYMMETRY directive was detected!
 

          ------
          auto-z
          ------
  Looking for out-of-plane bends
 
 
                             Geometry "geometry" -> ""
                             -------------------------
 
 Output coordinates in angstroms (scale by  1.889725989 to convert to a.u.)
 
  No.       Tag          Charge          X              Y              Z
 ---- ---------------- ---------- -------------- -------------- --------------
    1 O                    8.0000     0.00000000     0.00000000     0.67431100
    2 C                    6.0000     0.00000000     0.00000000    -0.52785300
    3 H                    1.0000     0.00000000     0.93703300    -1.11368600
    4 H                    1.0000     0.00000000    -0.93703300    -1.11368600
 
      Atomic Mass 
      ----------- 
 
      O                 15.994910
      C                 12.000000
      H                  1.007825
 

 Effective nuclear repulsion energy (a.u.)      31.3518897839

            Nuclear Dipole moment (a.u.) 
            ----------------------------
        X                 Y               Z
 ---------------- ---------------- ----------------
     0.0000000000     0.0000000000    -0.0000037795
 


                                Z-matrix (autoz)
                                -------- 

 Units are Angstrom for bonds and degrees for angles
 
      Type          Name      I     J     K     L     M      Value
      ----------- --------  ----- ----- ----- ----- ----- ----------
    1 Stretch                  1     2                       1.20216
    2 Stretch                  2     3                       1.10509
    3 Stretch                  2     4                       1.10509
    4 Bend                     1     2     3               122.01362
    5 Bend                     1     2     4               122.01362
    6 Bend                     3     2     4               115.97276
    7 Torsion                  1     2     3     4         180.00000
    8 Torsion                  1     2     4     3         180.00000
    9 Torsion                  3     2     1     4         180.00000
   10 Torsion                  1     4     2     3         180.00000
   11 Torsion                  3     1     2     4         180.00000
   12 Torsion                  1     3     2     4         180.00000
 
 
            XYZ format geometry
            -------------------
     4
 geometry
 O                     0.00000000     0.00000000     0.67431100
 C                     0.00000000     0.00000000    -0.52785300
 H                     0.00000000     0.93703300    -1.11368600
 H                     0.00000000    -0.93703300    -1.11368600
 
 ==============================================================================
                                internuclear distances
 ------------------------------------------------------------------------------
       center one      |      center two      | atomic units |  angstroms
 ------------------------------------------------------------------------------
    2 C                |   1 O                |     2.27176  |     1.20216
    3 H                |   2 C                |     2.08832  |     1.10509
    4 H                |   2 C                |     2.08832  |     1.10509
 ------------------------------------------------------------------------------
                         number of included internuclear distances:          3
 ==============================================================================



 ==============================================================================
                                 internuclear angles
 ------------------------------------------------------------------------------
        center 1       |       center 2       |       center 3       |  degrees
 ------------------------------------------------------------------------------
    1 O                |   2 C                |   3 H                |   122.01
    1 O                |   2 C                |   4 H                |   122.01
    3 H                |   2 C                |   4 H                |   115.97
 ------------------------------------------------------------------------------
                            number of included internuclear angles:          3
 ==============================================================================



  library name resolved from: environment
  library file name is: </home/niri/nwchem/nwchem-trunk/src/basis/libraries/>
  


 Summary of "ao basis" -> "" (cartesian)
 ------------------------------------------------------------------------------
       Tag                 Description            Shells   Functions and Types
 ---------------- ------------------------------  ------  ---------------------
 *                          6-311+G*                  on all atoms 


  xc_inp: hfexch multiplicative factor not found.
 tddft_input: filename not found; default name will be used
 
                                 NWChem DFT Module
                                 -----------------
 
 
                      Basis "ao basis" -> "ao basis" (cartesian)
                      -----
  O (Oxygen)
  ----------
            Exponent  Coefficients 
       -------------- ---------------------------------------------------------
  1 S  8.58850000E+03  0.001895
  1 S  1.29723000E+03  0.014386
  1 S  2.99296000E+02  0.070732
  1 S  8.73771000E+01  0.240001
  1 S  2.56789000E+01  0.594797
  1 S  3.74004000E+00  0.280802
 
  2 S  4.21175000E+01  0.113889
  2 S  9.62837000E+00  0.920811
  2 S  2.85332000E+00 -0.003274
 
  3 P  4.21175000E+01  0.036511
  3 P  9.62837000E+00  0.237153
  3 P  2.85332000E+00  0.819702
 
  4 S  9.05661000E-01  1.000000
 
  5 P  9.05661000E-01  1.000000
 
  6 S  2.55611000E-01  1.000000
 
  7 P  2.55611000E-01  1.000000
 
  8 S  8.45000000E-02  1.000000
 
  9 P  8.45000000E-02  1.000000
 
 10 D  1.29200000E+00  1.000000
 
  C (Carbon)
  ----------
            Exponent  Coefficients 
       -------------- ---------------------------------------------------------
  1 S  4.56324000E+03  0.001967
  1 S  6.82024000E+02  0.015231
  1 S  1.54973000E+02  0.076127
  1 S  4.44553000E+01  0.260801
  1 S  1.30290000E+01  0.616462
  1 S  1.82773000E+00  0.221006
 
  2 S  2.09642000E+01  0.114660
  2 S  4.80331000E+00  0.919999
  2 S  1.45933000E+00 -0.003031
 
  3 P  2.09642000E+01  0.040249
  3 P  4.80331000E+00  0.237594
  3 P  1.45933000E+00  0.815854
 
  4 S  4.83456000E-01  1.000000
 
  5 P  4.83456000E-01  1.000000
 
  6 S  1.45585000E-01  1.000000
 
  7 P  1.45585000E-01  1.000000
 
  8 S  4.38000000E-02  1.000000
 
  9 P  4.38000000E-02  1.000000
 
 10 D  6.26000000E-01  1.000000
 
  H (Hydrogen)
  ------------
            Exponent  Coefficients 
       -------------- ---------------------------------------------------------
  1 S  3.38650000E+01  0.025494
  1 S  5.09479000E+00  0.190373
  1 S  1.15879000E+00  0.852161
 
  2 S  3.25840000E-01  1.000000
 
  3 S  1.02741000E-01  1.000000
 


 Summary of "ao basis" -> "ao basis" (cartesian)
 ------------------------------------------------------------------------------
       Tag                 Description            Shells   Functions and Types
 ---------------- ------------------------------  ------  ---------------------
 O                          6-311+G*                10       23   5s4p1d
 C                          6-311+G*                10       23   5s4p1d
 H                          6-311+G*                 3        3   3s




 Summary of "ao basis" -> "ao basis" (cartesian)
 ------------------------------------------------------------------------------
       Tag                 Description            Shells   Functions and Types
 ---------------- ------------------------------  ------  ---------------------
 O                          6-311+G*                10       23   5s4p1d
 C                          6-311+G*                10       23   5s4p1d
 H                          6-311+G*                 3        3   3s


 
 solvent parameters
 solvname_short: h2o     
 solvname_long:  water                              
 dielec:       78.4000
 dielecinf:     1.8000
 aqueous SMD model solvent descriptors
 dielec:       78.4000
 sola:          0.8200

          ---------------
          -cosmo- solvent
          ---------------
 Cosmo: York-Karplus, doi: 10.1021/jp992097l
 dielectric constant -eps-     =  78.40
 screen = (eps-1)/(eps    )    =   0.98724
 surface charge correction     = lagrangian
 -lineq- algorithm             =   0
 -bem- low  level              =   3
 -bem- from -octahedral-
 gaussian surface charge width =   0.98000
 degree of switching           =   1.00000
 switching function tolerance  =   0.00010
 atomic radii = 
 --------------
    1  8.000  1.520
    2  6.000  1.850
    3  1.000  1.200
    4  1.000  1.200

 solvent accessible surface
 --------------------------

 ---------- ATOMIC COORDINATES (A.U.) ------------ VDWR(ANG.) --
     1    0.00000000    0.00000000    1.27426302     1.520
     2    0.00000000    0.00000000   -0.99749753     1.850
     3    0.00000000    1.77073561   -2.10456138     1.200
     4    0.00000000   -1.77073561   -2.10456138     1.200
 number of segments per atom =        128
 number of   points per atom =        128
 atom (   nspa,  nppa )
 ----------------------
    1 (     80,     0 )       0
    2 (     84,     0 )       0
    3 (     56,     0 )       0
    4 (     56,     0 )       0
 number of -cosmo- surface points =      276
 molecular surface =     53.589 angstrom**2
 molecular volume  =     28.564 angstrom**3
 ...... end of -cosmo- initialization ......


 G(SMD-CDS) energy (kcal/mol)  =     4.106
 SMD-CDS SASA (angstrom**2)    =    74.096

  Caching 1-el integrals 
 
            General Information
            -------------------
          SCF calculation type: DFT
          Wavefunction type:  closed shell.
          No. of atoms     :     4
          No. of electrons :    16
           Alpha electrons :     8
            Beta electrons :     8
          Charge           :     0
          Spin multiplicity:     1
          Use of symmetry is: off; symmetry adaption is: off
          Maximum number of iterations:  30
          AO basis - number of functions:    52
                     number of shells:    26
          Convergence on energy requested: 1.00D-06
          Convergence on density requested: 1.00D-05
          Convergence on gradient requested: 5.00D-04
 
              XC Information
              --------------
                     Hartree-Fock (Exact) Exchange  1.000          
 
          Convergence Information
          -----------------------
          Convergence aids based upon iterative change in 
          total energy or number of iterations. 
          Levelshifting, if invoked, occurs when the 
          HOMO/LUMO gap drops below (HL_TOL): 1.00D-02
          DIIS, if invoked, will attempt to extrapolate 
          using up to (NFOCK): 10 stored Fock matrices.

                    Damping( 0%)  Levelshifting(0.5)       DIIS
                  --------------- ------------------- ---------------
          dE  on:    start            ASAP                start   
          dE off:    2 iters         30 iters            30 iters 

 
      Screening Tolerance Information
      -------------------------------
          Density screening/tol_rho: 1.00D-10
          AO Gaussian exp screening on grid/accAOfunc:  14
          CD Gaussian exp screening on grid/accCDfunc:  20
          XC Gaussian exp screening on grid/accXCfunc:  20
          Schwarz screening/accCoul: 1.00D-08

 
      Superposition of Atomic Density Guess
      -------------------------------------
 
 Sum of atomic energies:        -113.44652199
 
      Non-variational initial energy
      ------------------------------

 Total energy =    -114.126279
 1-e energy   =    -216.079326
 2-e energy   =      70.601157
 HOMO         =      -0.334438
 LUMO         =      -0.048206
 
   Time after variat. SCF:      0.2
   Time prior to 1st pass:      0.2

 Integral file          = ./H2COWat_VEMExc_CISHF.aoints.0
 Record size in doubles =  65536        No. of integs per rec  =  43688
 Max. records in memory =      9        Max. records in file   =  13331
 No. of bits per label  =      8        No. of bits per value  =     64


 #quartets = 6.120D+04 #integrals = 3.800D+05 #direct =  0.0% #cached =100.0%


File balance: exchanges=     0  moved=     0  time=   0.0


           Memory utilization after 1st SCF pass: 
           Heap Space remaining (MW):       12.51            12513936
          Stack Space remaining (MW):       13.11            13106780

   convergence    iter        energy       DeltaE   RMS-Dens  Diis-err    time
 ---------------- ----- ----------------- --------- --------- ---------  ------
     COSMO gas phase
 d= 0,ls=0.0,diis     1   -113.8265843529 -1.45D+02  1.22D-02  6.19D-01     0.3
 d= 0,ls=0.0,diis     2   -113.8592392086 -3.27D-02  5.82D-03  4.62D-01     0.3
 d= 0,ls=0.0,diis     3   -113.8979153950 -3.87D-02  9.71D-04  3.26D-03     0.3
 d= 0,ls=0.0,diis     4   -113.8986721011 -7.57D-04  4.08D-04  4.63D-04     0.3
 d= 0,ls=0.0,diis     5   -113.8988035241 -1.31D-04  2.81D-04  9.02D-05     0.3
 d= 0,ls=0.0,diis     6   -113.8988415970 -3.81D-05  9.18D-05  1.19D-05     0.4
  Resetting Diis
 d= 0,ls=0.0,diis     7   -113.8988447692 -3.17D-06  1.54D-05  2.50D-07     0.4
 d= 0,ls=0.0,diis     8   -113.8988448378 -6.86D-08  1.92D-06  4.86D-09     0.4

           Memory utilization after 1st SCF pass: 
           Heap Space remaining (MW):       12.51            12512808
          Stack Space remaining (MW):       13.11            13106780

   convergence    iter        energy       DeltaE   RMS-Dens  Diis-err    time
 ---------------- ----- ----------------- --------- --------- ---------  ------
     COSMO solvation phase
 d= 0,ls=0.0,diis     1   -113.9027854362 -3.94D-03  3.25D-03  9.37D-03     0.6
 d= 0,ls=0.0,diis     2   -113.9055197380 -2.73D-03  7.50D-04  4.23D-03     0.8
 d= 0,ls=0.0,diis     3   -113.9060812315 -5.61D-04  7.92D-04  5.97D-04     1.0
 d= 0,ls=0.0,diis     4   -113.9063565020 -2.75D-04  2.56D-04  7.51D-05     1.3
 d= 0,ls=0.0,diis     5   -113.9063968647 -4.04D-05  9.70D-05  1.07D-05     1.5
 d= 0,ls=0.0,diis     6   -113.9064011666 -4.30D-06  2.69D-05  1.24D-06     1.7
 d= 0,ls=0.0,diis     7   -113.9064015150 -3.48D-07  5.53D-06  5.20D-08     1.9


         Total DFT energy =     -113.906401514952
      One electron energy =     -217.797605166102
           Coulomb energy =       86.408273885318
    Exchange-Corr. energy =      -14.095187083382
 Nuclear repulsion energy =       31.351889783872

 Numeric. integr. density =        0.000000000000

     Total iterative time =      1.7s


                                COSMO-SMD solvation results
                                ---------------------------
 Reference for the SMD model:
 Marenich, A. V.; Cramer, C. J.; Truhlar, D. G. J. Phys. Chem. B 2009, 113, 6378

             internal energy in gas <Psi(g)|H|Psi(g)> =      -113.8988448378
         internal energy in solvent <Psi(s)|H|Psi(s)> =      -113.8940306159
                               delta internal energy  =         0.0048142220 (    3.02 kcal/mol)
   total free energy in solvent <Psi(s)|H+V/2|Psi(s)> =      -113.9129453243
 polarization energy contribution <Psi(s)|V/2|Psi(s)> =        -0.0189147085 (  -11.87 kcal/mol)
    total free energy in solvent including G(SMD-CDS) =      -113.9064015150
                       G(SMD-CDS) energy contribution =         0.0065438094 (    4.11 kcal/mol)
     1 M fixed-concentration free energy of solvation =        -0.0075566771 (   -4.74 kcal/mol)
 
                       DFT Final Molecular Orbital Analysis
                       ------------------------------------
 
 Vector    1  Occ=2.000000D+00  E=-2.058337D+01
              MO Center=  1.5D-17,  3.0D-17,  6.7D-01, r^2= 1.5D-02
   Bfn.  Coefficient  Atom+Function         Bfn.  Coefficient  Atom+Function  
  ----- ------------  ---------------      ----- ------------  ---------------
     1      0.551494  1 O  s                  2      0.471461  1 O  s          
 
 Vector    2  Occ=2.000000D+00  E=-1.134830D+01
              MO Center= -3.3D-17, -4.1D-17, -5.3D-01, r^2= 2.7D-02
   Bfn.  Coefficient  Atom+Function         Bfn.  Coefficient  Atom+Function  
  ----- ------------  ---------------      ----- ------------  ---------------
    24      0.563540  2 C  s                 25      0.466229  2 C  s          
 
 Vector    3  Occ=2.000000D+00  E=-1.422830D+00
              MO Center= -6.5D-16,  7.7D-16,  3.5D-01, r^2= 4.9D-01
   Bfn.  Coefficient  Atom+Function         Bfn.  Coefficient  Atom+Function  
  ----- ------------  ---------------      ----- ------------  ---------------
     6      0.500172  1 O  s                 10      0.355355  1 O  s          
    29      0.245170  2 C  s                  2     -0.177278  1 O  s          
 
 Vector    4  Occ=2.000000D+00  E=-8.658198D-01
              MO Center=  2.6D-16, -7.2D-15, -4.9D-01, r^2= 1.4D+00
   Bfn.  Coefficient  Atom+Function         Bfn.  Coefficient  Atom+Function  
  ----- ------------  ---------------      ----- ------------  ---------------
    29      0.419053  2 C  s                 33      0.312911  2 C  s          
    10     -0.279853  1 O  s                  6     -0.238379  1 O  s          
 
 Vector    5  Occ=2.000000D+00  E=-6.965865D-01
              MO Center=  6.0D-18, -1.6D-14, -2.4D-01, r^2= 1.3D+00
   Bfn.  Coefficient  Atom+Function         Bfn.  Coefficient  Atom+Function  
  ----- ------------  ---------------      ----- ------------  ---------------
    31      0.303975  2 C  py                 8      0.257039  1 O  py         
    12      0.197975  1 O  py                27      0.174045  2 C  py         
     4      0.163820  1 O  py         
 
 Vector    6  Occ=2.000000D+00  E=-6.665652D-01
              MO Center=  3.4D-16,  1.8D-14,  3.1D-01, r^2= 1.3D+00
   Bfn.  Coefficient  Atom+Function         Bfn.  Coefficient  Atom+Function  
  ----- ------------  ---------------      ----- ------------  ---------------
     9      0.339657  1 O  pz                10      0.287499  1 O  s          
    32     -0.282752  2 C  pz                 5      0.227185  1 O  pz         
    13      0.224709  1 O  pz                28     -0.172361  2 C  pz         
     6      0.164206  1 O  s          
 
 Vector    7  Occ=2.000000D+00  E=-5.548632D-01
              MO Center= -1.6D-16,  2.1D-16,  3.4D-01, r^2= 9.3D-01
   Bfn.  Coefficient  Atom+Function         Bfn.  Coefficient  Atom+Function  
  ----- ------------  ---------------      ----- ------------  ---------------
     7      0.361784  1 O  px                11      0.328204  1 O  px         
     3      0.229562  1 O  px                30      0.228570  2 C  px         
 
 Vector    8  Occ=2.000000D+00  E=-4.473210D-01
              MO Center= -1.1D-17,  3.3D-15,  7.4D-03, r^2= 1.6D+00
   Bfn.  Coefficient  Atom+Function         Bfn.  Coefficient  Atom+Function  
  ----- ------------  ---------------      ----- ------------  ---------------
    12      0.379000  1 O  py                 8      0.366279  1 O  py         
     4      0.239441  1 O  py                48     -0.179210  3 H  s          
    51      0.179210  4 H  s                 31     -0.176280  2 C  py         
 
 Vector    9  Occ=0.000000D+00  E= 7.943443D-02
              MO Center=  2.0D-13,  5.9D-13, -2.3D-01, r^2= 1.0D+01
   Bfn.  Coefficient  Atom+Function         Bfn.  Coefficient  Atom+Function  
  ----- ------------  ---------------      ----- ------------  ---------------
    37      2.921244  2 C  s                 14     -2.163299  1 O  s          
    17      0.577625  1 O  pz                33      0.568810  2 C  s          
    49     -0.470955  3 H  s                 52     -0.470955  4 H  s          
    36      0.399169  2 C  pz                40      0.357779  2 C  pz         
 
 Vector   10  Occ=0.000000D+00  E= 8.287665D-02
              MO Center= -2.0D-13, -7.9D-17, -8.3D-01, r^2= 6.6D+00
   Bfn.  Coefficient  Atom+Function         Bfn.  Coefficient  Atom+Function  
  ----- ------------  ---------------      ----- ------------  ---------------
    38      1.079005  2 C  px                15     -0.520437  1 O  px         
    34      0.220081  2 C  px                 7     -0.179300  1 O  px         
    30      0.174810  2 C  px                11     -0.170153  1 O  px         
 
 Vector   11  Occ=0.000000D+00  E= 9.841453D-02
              MO Center= -1.1D-15,  4.1D-13, -1.3D+00, r^2= 1.1D+01
   Bfn.  Coefficient  Atom+Function         Bfn.  Coefficient  Atom+Function  
  ----- ------------  ---------------      ----- ------------  ---------------
    40     -1.718203  2 C  pz                14      1.580553  1 O  s          
    49     -0.487832  3 H  s                 52     -0.487832  4 H  s          
    33     -0.475695  2 C  s                 37     -0.222325  2 C  s          
    17     -0.200016  1 O  pz         
 
 Vector   12  Occ=0.000000D+00  E= 9.916548D-02
              MO Center=  1.5D-17, -9.4D-13, -5.9D-01, r^2= 1.2D+01
   Bfn.  Coefficient  Atom+Function         Bfn.  Coefficient  Atom+Function  
  ----- ------------  ---------------      ----- ------------  ---------------
    39      1.851217  2 C  py                49     -0.865758  3 H  s          
    52      0.865758  4 H  s                 16     -0.493798  1 O  py         
 
 Vector   13  Occ=0.000000D+00  E= 1.575515D-01
              MO Center= -2.0D-15, -9.4D-17, -1.3D-01, r^2= 5.6D+00
   Bfn.  Coefficient  Atom+Function         Bfn.  Coefficient  Atom+Function  
  ----- ------------  ---------------      ----- ------------  ---------------
    34      0.908530  2 C  px                38     -0.807408  2 C  px         
    15     -0.272054  1 O  px                11     -0.255001  1 O  px         
    30      0.243658  2 C  px                26      0.191467  2 C  px         
 
 Vector   14  Occ=0.000000D+00  E= 2.510937D-01
              MO Center=  1.4D-17,  1.9D-14,  1.2D+00, r^2= 5.9D+00
   Bfn.  Coefficient  Atom+Function         Bfn.  Coefficient  Atom+Function  
  ----- ------------  ---------------      ----- ------------  ---------------
    17      2.269144  1 O  pz                33      2.189321  2 C  s          
    14     -1.037214  1 O  s                 40     -0.596695  2 C  pz         
    13     -0.279366  1 O  pz                10     -0.272505  1 O  s          
    36      0.233695  2 C  pz         
 
 Vector   15  Occ=0.000000D+00  E= 2.639906D-01
              MO Center=  7.2D-17,  6.2D-13, -1.2D+00, r^2= 5.4D+00
   Bfn.  Coefficient  Atom+Function         Bfn.  Coefficient  Atom+Function  
  ----- ------------  ---------------      ----- ------------  ---------------
    49      2.614672  3 H  s                 52      2.614672  4 H  s          
    37     -1.758165  2 C  s                 33     -1.542931  2 C  s          
    36      1.057841  2 C  pz                14     -0.932621  1 O  s          
    17      0.701914  1 O  pz                40      0.634460  2 C  pz         
 
 Vector   16  Occ=0.000000D+00  E= 2.849426D-01
              MO Center=  3.2D-17, -4.0D-13,  2.9D-01, r^2= 6.8D+00
   Bfn.  Coefficient  Atom+Function         Bfn.  Coefficient  Atom+Function  
  ----- ------------  ---------------      ----- ------------  ---------------
    16      1.634951  1 O  py                49     -1.008159  3 H  s          
    52      1.008159  4 H  s                 12     -0.582225  1 O  py         
    39     -0.359115  2 C  py                48      0.160431  3 H  s          
    51     -0.160431  4 H  s          
 
 Vector   17  Occ=0.000000D+00  E= 3.051917D-01
              MO Center=  2.6D-14, -7.1D-18,  5.2D-01, r^2= 6.6D+00
   Bfn.  Coefficient  Atom+Function         Bfn.  Coefficient  Atom+Function  
  ----- ------------  ---------------      ----- ------------  ---------------
    15      1.937269  1 O  px                38     -1.023650  2 C  px         
    11     -0.704682  1 O  px         
 
 Vector   18  Occ=0.000000D+00  E= 3.305120D-01
              MO Center=  3.9D-17,  9.1D-13, -7.3D-01, r^2= 7.6D+00
   Bfn.  Coefficient  Atom+Function         Bfn.  Coefficient  Atom+Function  
  ----- ------------  ---------------      ----- ------------  ---------------
    49      2.880405  3 H  s                 52     -2.880405  4 H  s          
    39     -1.951321  2 C  py                35     -1.764411  2 C  py         
    16      1.488750  1 O  py                27     -0.160094  2 C  py         
    31     -0.158293  2 C  py         
 
 Vector   19  Occ=0.000000D+00  E= 3.614148D-01
              MO Center= -2.5D-14, -1.1D-12,  7.2D-01, r^2= 6.3D+00
   Bfn.  Coefficient  Atom+Function         Bfn.  Coefficient  Atom+Function  
  ----- ------------  ---------------      ----- ------------  ---------------
    14      6.356588  1 O  s                 37     -2.919871  2 C  s          
    33     -2.120921  2 C  s                 10     -1.489236  1 O  s          
    40     -1.460023  2 C  pz                17     -1.124093  1 O  pz         
    36     -0.393202  2 C  pz                13     -0.267734  1 O  pz         
 
 Vector   20  Occ=0.000000D+00  E= 4.827728D-01
              MO Center=  2.0D-16, -5.6D-14, -1.2D+00, r^2= 3.6D+00
   Bfn.  Coefficient  Atom+Function         Bfn.  Coefficient  Atom+Function  
  ----- ------------  ---------------      ----- ------------  ---------------
    14      4.187953  1 O  s                 33     -3.481087  2 C  s          
    36     -3.383304  2 C  pz                10      1.703718  1 O  s          
    17     -1.506552  1 O  pz                37     -1.445888  2 C  s          
    13     -1.050807  1 O  pz                48     -0.467887  3 H  s          
    51     -0.467887  4 H  s                 40      0.221441  2 C  pz         
 
 Vector   21  Occ=0.000000D+00  E= 6.351211D-01
              MO Center= -1.5D-14, -2.3D-13, -7.5D-01, r^2= 3.8D+00
   Bfn.  Coefficient  Atom+Function         Bfn.  Coefficient  Atom+Function  
  ----- ------------  ---------------      ----- ------------  ---------------
    33     -3.754190  2 C  s                 14      3.530373  1 O  s          
    49     -1.830738  3 H  s                 52     -1.830738  4 H  s          
    48      1.365784  3 H  s                 51      1.365784  4 H  s          
    36     -1.208470  2 C  pz                17     -1.190932  1 O  pz         
    13     -0.864240  1 O  pz                10      0.849801  1 O  s          
 

 center of mass
 --------------
 x =   0.00000000 y =   0.00000000 z =   0.13894085

 moments of inertia (a.u.)
 ------------------
          52.580104018329           0.000000000000           0.000000000000
           0.000000000000          46.260024154175           0.000000000000
           0.000000000000           0.000000000000           6.320079864154
 
     Multipole analysis of the density
     ---------------------------------
 
     L   x y z        total         alpha         beta         nuclear
     -   - - -        -----         -----         ----         -------
     0   0 0 0      0.000000     -8.000000     -8.000000     16.000000
 
     1   1 0 0      0.000000      0.000000      0.000000      0.000000
     1   0 1 0      0.000000      0.000000      0.000000      0.000000
     1   0 0 1     -1.585455     -0.792726     -0.792726     -0.000004
 
     2   2 0 0     -8.677280     -4.338640     -4.338640      0.000000
     2   1 1 0      0.000000      0.000000      0.000000      0.000000
     2   1 0 1      0.000000      0.000000      0.000000      0.000000
     2   0 2 0     -8.352726     -7.311868     -7.311868      6.271009
     2   0 1 1      0.000000      0.000000      0.000000      0.000000
     2   0 0 2     -8.995920    -18.407128    -18.407128     27.818335
 

 Parallel integral file used      10 records with       0 large values

                                NWChem TDDFT Module
                                -------------------
 
 
            General Information
            -------------------
           No. of orbitals :   104
            Alpha orbitals :    52
             Beta orbitals :    52
        Alpha frozen cores :     0
         Beta frozen cores :     0
     Alpha frozen virtuals :     0
      Beta frozen virtuals :     0
         Spin multiplicity :     1
    Number of AO functions :    52
        Use of symmetry is : off
      Symmetry adaption is : off
         Schwarz screening : 0.10D-07
 
              XC Information
              --------------
              Hartree-Fock (Exact) Exchange   1.00          
 
             TDDFT Information
             -----------------
          Calculation type : CIS               
         Wavefunction type : Restricted singlets
          No. of electrons :    16
           Alpha electrons :     8
            Beta electrons :     8
              No. of roots :    10
          Max subspacesize :  6000
            Max iterations :   100
               Target root :     1
           Target symmetry : none
      Symmetry restriction : off
                 Algorithm : Incore multiple tensor contraction
        Davidson threshold : 0.10D-03
 
 solvent parameters
 solvname_short: h2o     
 solvname_long:  water                              
 dielec:       78.4000
 dielecinf:     1.8000
 aqueous SMD model solvent descriptors
 dielec:       78.4000
 sola:          0.8200

 solvent accessible surface
 --------------------------

 ---------- ATOMIC COORDINATES (A.U.) ------------ VDWR(ANG.) --
     1    0.00000000    0.00000000    1.27426302     1.520
     2    0.00000000    0.00000000   -0.99749753     1.850
     3    0.00000000    1.77073561   -2.10456138     1.200
     4    0.00000000   -1.77073561   -2.10456138     1.200
 number of segments per atom =        128
 number of   points per atom =        128
 atom (   nspa,  nppa )
 ----------------------
    1 (     80,     0 )       0
    2 (     84,     0 )       0
    3 (     56,     0 )       0
    4 (     56,     0 )       0
 number of -cosmo- surface points =      276
 molecular surface =     53.589 angstrom**2
 molecular volume  =     28.564 angstrom**3
 G(SMD-CDS) energy (kcal/mol)  =     4.106
 SMD-CDS SASA (angstrom**2)    =    74.096

 
            Memory Information
            ------------------
          Available GA space size is         104854068 doubles
          Available MA space size is          26209748 doubles
          Length of a trial vector is          352
          Estimated peak GA usage is           6563952 doubles
          Estimated peak MA usage is             51000 doubles
 
   10 smallest eigenvalue differences (eV) 
--------------------------------------------------------
  No. Spin  Occ  Vir  Irrep   E(Occ)    E(Vir)   E(Diff)
--------------------------------------------------------
    1    1    8    9 a        -0.447     0.079    14.334
    2    1    8   10 a        -0.447     0.083    14.427
    3    1    8   11 a        -0.447     0.098    14.850
    4    1    8   12 a        -0.447     0.099    14.871
    5    1    8   13 a        -0.447     0.158    16.459
    6    1    7    9 a        -0.555     0.079    17.260
    7    1    7   10 a        -0.555     0.083    17.354
    8    1    7   11 a        -0.555     0.098    17.777
    9    1    7   12 a        -0.555     0.099    17.797
   10    1    8   14 a        -0.447     0.251    19.005
--------------------------------------------------------

  Entering Davidson iterations
  Restricted singlet excited states

  Iter   NTrls   NConv    DeltaV     DeltaE      Time   
  ----  ------  ------  ---------  ---------  --------- 
    1     10       0     0.20E+00   0.10+100        1.1
    2     20       0     0.10E+00   0.34E-01        1.1
    3     30       0     0.37E-01   0.24E-01        1.1
    4     40       0     0.24E+00   0.45E-01        1.1
    5     50       0     0.57E-01   0.30E-01        1.1
    6     60       3     0.15E-01   0.20E-02        1.1
    7     67       5     0.35E-02   0.74E-04        1.0
    8     72       9     0.68E-03   0.29E-05        1.0
    9     73       9     0.11E-03   0.97E-07        0.8
   10     74      10     0.88E-04   0.38E-08        0.8
  ----  ------  ------  ---------  ---------  --------- 
  Convergence criterion met
 
  Ground state a        -113.906401514952 a.u.
 
  ----------------------------------------------------------------------------
  Root   1 singlet a              0.184009792 a.u.                5.0072 eV 
  ----------------------------------------------------------------------------
     Transition Moments    X  0.00000   Y  0.00000   Z  0.00000
     Transition Moments   XX  0.00000  XY -0.66808  XZ  0.00000
     Transition Moments   YY  0.00000  YZ  0.00000  ZZ  0.00000
     Dipole Oscillator Strength                         0.00000
 
     Occ.    5  a   ---  Virt.   10  a     -0.05426
     Occ.    5  a   ---  Virt.   17  a     -0.05073
     Occ.    8  a   ---  Virt.   10  a     -0.74692
     Occ.    8  a   ---  Virt.   13  a     -0.61039
     Occ.    8  a   ---  Virt.   17  a     -0.22134
     Occ.    8  a   ---  Virt.   23  a      0.08838
     Occ.    8  a   ---  Virt.   28  a     -0.05553
  ----------------------------------------------------------------------------
  Root   2 singlet a              0.326489750 a.u.                8.8842 eV 
  ----------------------------------------------------------------------------
     Transition Moments    X  0.00000   Y  0.05484   Z  0.00000
     Transition Moments   XX  0.00000  XY  0.00000  XZ  0.00000
     Transition Moments   YY  0.00000  YZ -1.50065  ZZ  0.00000
     Dipole Oscillator Strength                         0.00065
 
     Occ.    5  a   ---  Virt.   11  a     -0.06262
     Occ.    8  a   ---  Virt.    9  a      0.91903
     Occ.    8  a   ---  Virt.   11  a     -0.28567
     Occ.    8  a   ---  Virt.   15  a      0.09211
     Occ.    8  a   ---  Virt.   19  a      0.22567
  ----------------------------------------------------------------------------
  Root   3 singlet a              0.363472914 a.u.                9.8906 eV 
  ----------------------------------------------------------------------------
     Transition Moments    X  0.00000   Y  0.59498   Z  0.00000
     Transition Moments   XX  0.00000  XY  0.00000  XZ  0.00000
     Transition Moments   YY  0.00000  YZ -1.18961  ZZ  0.00000
     Dipole Oscillator Strength                         0.08578
 
     Occ.    5  a   ---  Virt.    9  a     -0.09473
     Occ.    5  a   ---  Virt.   11  a     -0.05698
     Occ.    8  a   ---  Virt.    9  a      0.28941
     Occ.    8  a   ---  Virt.   11  a      0.91583
     Occ.    8  a   ---  Virt.   14  a     -0.08467
     Occ.    8  a   ---  Virt.   15  a      0.16299
     Occ.    8  a   ---  Virt.   19  a     -0.10648
     Occ.    8  a   ---  Virt.   20  a      0.11229
  ----------------------------------------------------------------------------
  Root   4 singlet a              0.364666075 a.u.                9.9231 eV 
  ----------------------------------------------------------------------------
     Transition Moments    X  0.00000   Y  0.00000   Z -0.95078
     Transition Moments   XX  0.48931  XY  0.00000  XZ  0.00000
     Transition Moments   YY  0.74362  YZ  0.00000  ZZ -0.05529
     Dipole Oscillator Strength                         0.21977
 
     Occ.    4  a   ---  Virt.    9  a     -0.05476
     Occ.    5  a   ---  Virt.   16  a      0.08307
     Occ.    7  a   ---  Virt.   10  a     -0.40297
     Occ.    7  a   ---  Virt.   13  a     -0.30901
     Occ.    7  a   ---  Virt.   17  a     -0.07795
     Occ.    8  a   ---  Virt.   12  a      0.80650
     Occ.    8  a   ---  Virt.   16  a      0.18743
     Occ.    8  a   ---  Virt.   18  a      0.14774
     Occ.    8  a   ---  Virt.   22  a      0.07938
  ----------------------------------------------------------------------------
  Root   5 singlet a              0.384594378 a.u.               10.4653 eV 
  ----------------------------------------------------------------------------
     Transition Moments    X  0.00000   Y  0.00000   Z  0.00000
     Transition Moments   XX  0.00000  XY  0.00756  XZ  0.00000
     Transition Moments   YY  0.00000  YZ  0.00000  ZZ  0.00000
     Dipole Oscillator Strength                         0.00000
 
     Occ.    5  a   ---  Virt.   10  a     -0.10514
     Occ.    5  a   ---  Virt.   13  a     -0.11185
     Occ.    5  a   ---  Virt.   17  a     -0.08409
     Occ.    8  a   ---  Virt.   10  a     -0.57843
     Occ.    8  a   ---  Virt.   13  a      0.77466
     Occ.    8  a   ---  Virt.   17  a     -0.15167
     Occ.    8  a   ---  Virt.   23  a     -0.09605
  ----------------------------------------------------------------------------
  Root   6 singlet a              0.385630274 a.u.               10.4935 eV 
  ----------------------------------------------------------------------------
     Transition Moments    X -0.01116   Y  0.00000   Z  0.00000
     Transition Moments   XX  0.00000  XY  0.00000  XZ  1.11816
     Transition Moments   YY  0.00000  YZ  0.00000  ZZ  0.00000
     Dipole Oscillator Strength                         0.00003
 
     Occ.    3  a   ---  Virt.   10  a     -0.05251
     Occ.    3  a   ---  Virt.   13  a     -0.06061
     Occ.    6  a   ---  Virt.   10  a      0.72539
     Occ.    6  a   ---  Virt.   13  a      0.62480
     Occ.    6  a   ---  Virt.   17  a      0.23240
     Occ.    6  a   ---  Virt.   23  a     -0.11266
     Occ.    6  a   ---  Virt.   28  a      0.06265
  ----------------------------------------------------------------------------
  Root   7 singlet a              0.385745262 a.u.               10.4967 eV 
  ----------------------------------------------------------------------------
     Transition Moments    X  0.00000   Y  0.00000   Z -0.59087
     Transition Moments   XX  0.50651  XY  0.00000  XZ  0.00000
     Transition Moments   YY -0.61660  YZ  0.00000  ZZ -0.94219
     Dipole Oscillator Strength                         0.08978
 
     Occ.    6  a   ---  Virt.   20  a      0.07684
     Occ.    6  a   ---  Virt.   21  a      0.05005
     Occ.    6  a   ---  Virt.   24  a     -0.05334
     Occ.    6  a   ---  Virt.   26  a      0.05457
     Occ.    6  a   ---  Virt.   27  a      0.05201
     Occ.    7  a   ---  Virt.   10  a     -0.65401
     Occ.    7  a   ---  Virt.   13  a     -0.42555
     Occ.    7  a   ---  Virt.   17  a     -0.10598
     Occ.    8  a   ---  Virt.   12  a     -0.54153
     Occ.    8  a   ---  Virt.   16  a      0.13932
     Occ.    8  a   ---  Virt.   18  a     -0.14913
     Occ.    8  a   ---  Virt.   22  a      0.08693
  ----------------------------------------------------------------------------
  Root   8 singlet a              0.417699301 a.u.               11.3662 eV 
  ----------------------------------------------------------------------------
     Transition Moments    X  0.00000   Y  0.00000   Z  0.00000
     Transition Moments   XX  0.00000  XY  0.73422  XZ  0.00000
     Transition Moments   YY  0.00000  YZ  0.00000  ZZ  0.00000
     Dipole Oscillator Strength                         0.00000
 
     Occ.    5  a   ---  Virt.   10  a     -0.70728
     Occ.    5  a   ---  Virt.   13  a     -0.60908
     Occ.    5  a   ---  Virt.   17  a     -0.18625
     Occ.    5  a   ---  Virt.   23  a      0.10570
     Occ.    8  a   ---  Virt.   10  a      0.21443
     Occ.    8  a   ---  Virt.   13  a     -0.08105
     Occ.    8  a   ---  Virt.   17  a     -0.15452
  ----------------------------------------------------------------------------
  Root   9 singlet a              0.431513138 a.u.               11.7421 eV 
  ----------------------------------------------------------------------------
     Transition Moments    X  0.62536   Y  0.00000   Z  0.00000
     Transition Moments   XX  0.00000  XY  0.00000  XZ  0.46964
     Transition Moments   YY  0.00000  YZ  0.00000  ZZ  0.00000
     Dipole Oscillator Strength                         0.11250
 
     Occ.    7  a   ---  Virt.    9  a     -0.89122
     Occ.    7  a   ---  Virt.   11  a      0.37907
     Occ.    7  a   ---  Virt.   15  a     -0.05428
     Occ.    7  a   ---  Virt.   19  a     -0.23679
  ----------------------------------------------------------------------------
  Root  10 singlet a              0.465293662 a.u.               12.6613 eV 
  ----------------------------------------------------------------------------
     Transition Moments    X  0.00000   Y -0.30476   Z  0.00000
     Transition Moments   XX  0.00000  XY  0.00000  XZ  0.00000
     Transition Moments   YY  0.00000  YZ -0.25722  ZZ  0.00000
     Dipole Oscillator Strength                         0.02881
 
     Occ.    5  a   ---  Virt.    9  a      0.08095
     Occ.    5  a   ---  Virt.   11  a     -0.11006
     Occ.    5  a   ---  Virt.   14  a      0.09549
     Occ.    8  a   ---  Virt.    9  a      0.07966
     Occ.    8  a   ---  Virt.   14  a      0.96230
     Occ.    8  a   ---  Virt.   19  a     -0.08811
     Occ.    8  a   ---  Virt.   20  a      0.12953
     Occ.    8  a   ---  Virt.   27  a      0.05455
 
              Target root =      1
          Target symmetry = none
      Ground state energy =   -113.906401514952
        Excitation energy =      0.184009791856
     Excited state energy =   -113.722391723096
 
 fn_civecs: 
 ./H2COWat_VEMExc_CISHF.civecs_singlet                                          
                                                                                
                                                                                
                   

  CI vectors are stored in ./H2COWat_VEMExc_CISHF.civecs_si
 
 
                           NWChem TDDFT Gradient Module
                           ----------------------------
 
 
 ./H2COWat_VEMExc_CISHF.civecs_singlet                                          
                                                                                
                                                                                
                   
 
 solvent parameters
 solvname_short: h2o     
 solvname_long:  water                              
 dielec:       78.4000
 dielecinf:     1.8000
 aqueous SMD model solvent descriptors
 dielec:       78.4000
 sola:          0.8200

 solvent accessible surface
 --------------------------

 ---------- ATOMIC COORDINATES (A.U.) ------------ VDWR(ANG.) --
     1    0.00000000    0.00000000    1.27426302     1.520
     2    0.00000000    0.00000000   -0.99749753     1.850
     3    0.00000000    1.77073561   -2.10456138     1.200
     4    0.00000000   -1.77073561   -2.10456138     1.200
 number of segments per atom =        128
 number of   points per atom =        128
 atom (   nspa,  nppa )
 ----------------------
    1 (     80,     0 )       0
    2 (     84,     0 )       0
    3 (     56,     0 )       0
    4 (     56,     0 )       0
 number of -cosmo- surface points =      276
 molecular surface =     53.589 angstrom**2
 molecular volume  =     28.564 angstrom**3
 G(SMD-CDS) energy (kcal/mol)  =     4.106
 SMD-CDS SASA (angstrom**2)    =    74.096

 Calculated gradients of:
 Number of Singlet roots   1
 Singlet roots    1 
 
 Start at time  cpu:       12.4s  wall:       14.6s
 
TDDFT Energy Check(  1) =       0.18400979185572


Iterative solution of linear equations
  No. of variables      352
  No. of equations        1
  Maximum subspace       40
        Iterations      250
       Convergence  1.0D-05
        Start time     18.6


   iter   nsub   residual    time
   ----  ------  --------  ---------
     1      1    1.21D-01      19.5
     2      2    2.65D-02      20.4
     3      3    5.54D-03      21.4
     4      4    1.33D-03      22.3
     5      5    3.97D-04      23.2
     6      6    8.35D-05      24.1
     7      7    1.51D-05      25.1
     8      8    1.64D-06      26.0
     Dipole Moment    X  0.00000   Y  0.00000   Z -1.04483
 
     No. of electrons (tr(P*S)):     0.1600000E+02
 

                          COSMO-VEM solvation results
                          ---------------------------
 Reference for the VEM model:
 Marenich, A. V.; Cramer, C. J.; Truhlar, D. G.; Guido, C. A.; Mennucci, B.;
 Scalmani, G.; Frisch, M. J. Chem. Sci. 2011, 2, 2143

 excitation spectrum data:  GS = initial state, ES = final state
 iteration #1
 (1)          GS equilibrium total free energy =      -113.9129453243
 (2)               GS polarization free energy =        -0.0189147085 (   -0.5147 eV)
 (3)                 GSRF ES total free energy =      -113.7289355325
 (4)          GSRF ES polarization free energy =        -0.0049403307 (   -0.1344 eV)
 (5)          GSRF excitation energy (3) - (1) =         0.1840097919 (    5.0072 eV)
 (6)                cGSRF ES total free energy =      -113.7318703017
 (7)         cGSRF ES polarization free energy =        -0.0078751000 (   -0.2143 eV)
 (8)        fast polarization component of (7) =        -0.0051588401 (   -0.1404 eV)
 (9)                 1/2 * delV * delQdyn term =        -0.0029347693 (   -0.0799 eV)
 (10)        cGSRF excitation energy (6) - (1) =         0.1810750226 (    4.9273 eV)
 
 TDDFT Gradient time  cpu:       14.6s  wall:       16.5s
 
                                 NWChem DFT Module
                                 -----------------
 
 


 Summary of "ao basis" -> "ao basis" (cartesian)
 ------------------------------------------------------------------------------
       Tag                 Description            Shells   Functions and Types
 ---------------- ------------------------------  ------  ---------------------
 O                          6-311+G*                10       23   5s4p1d
 C                          6-311+G*                10       23   5s4p1d
 H                          6-311+G*                 3        3   3s


 
 solvent parameters
 solvname_short: h2o     
 solvname_long:  water                              
 dielec:       78.4000
 dielecinf:     1.8000
 aqueous SMD model solvent descriptors
 dielec:       78.4000
 sola:          0.8200

          ---------------
          -cosmo- solvent
          ---------------
 Cosmo: York-Karplus, doi: 10.1021/jp992097l
 dielectric constant -eps-     =  78.40
 screen = (eps-1)/(eps    )    =   0.98724
 surface charge correction     = lagrangian
 -lineq- algorithm             =   0
 -bem- low  level              =   3
 -bem- from -octahedral-
 gaussian surface charge width =   0.98000
 degree of switching           =   1.00000
 switching function tolerance  =   0.00010
 atomic radii = 
 --------------
    1  8.000  1.520
    2  6.000  1.850
    3  1.000  1.200
    4  1.000  1.200

 solvent accessible surface
 --------------------------

 ---------- ATOMIC COORDINATES (A.U.) ------------ VDWR(ANG.) --
     1    0.00000000    0.00000000    1.27426302     1.520
     2    0.00000000    0.00000000   -0.99749753     1.850
     3    0.00000000    1.77073561   -2.10456138     1.200
     4    0.00000000   -1.77073561   -2.10456138     1.200
 number of segments per atom =        128
 number of   points per atom =        128
 atom (   nspa,  nppa )
 ----------------------
    1 (     80,     0 )       0
    2 (     84,     0 )       0
    3 (     56,     0 )       0
    4 (     56,     0 )       0
 number of -cosmo- surface points =      276
 molecular surface =     53.589 angstrom**2
 molecular volume  =     28.564 angstrom**3
 ...... end of -cosmo- initialization ......


 G(SMD-CDS) energy (kcal/mol)  =     4.106
 SMD-CDS SASA (angstrom**2)    =    74.096

  Caching 1-el integrals 
 
            General Information
            -------------------
          SCF calculation type: DFT
          Wavefunction type:  closed shell.
          No. of atoms     :     4
          No. of electrons :    16
           Alpha electrons :     8
            Beta electrons :     8
          Charge           :     0
          Spin multiplicity:     1
          Use of symmetry is: off; symmetry adaption is: off
          Maximum number of iterations:  30
          AO basis - number of functions:    52
                     number of shells:    26
          Convergence on energy requested: 1.00D-06
          Convergence on density requested: 1.00D-05
          Convergence on gradient requested: 5.00D-04
 
              XC Information
              --------------
                     Hartree-Fock (Exact) Exchange  1.000          
 
          Convergence Information
          -----------------------
          Convergence aids based upon iterative change in 
          total energy or number of iterations. 
          Levelshifting, if invoked, occurs when the 
          HOMO/LUMO gap drops below (HL_TOL): 1.00D-02
          DIIS, if invoked, will attempt to extrapolate 
          using up to (NFOCK): 10 stored Fock matrices.

                    Damping( 0%)  Levelshifting(0.5)       DIIS
                  --------------- ------------------- ---------------
          dE  on:    start            ASAP                start   
          dE off:    2 iters         30 iters            30 iters 

 
      Screening Tolerance Information
      -------------------------------
          Density screening/tol_rho: 1.00D-10
          AO Gaussian exp screening on grid/accAOfunc:  14
          CD Gaussian exp screening on grid/accCDfunc:  20
          XC Gaussian exp screening on grid/accXCfunc:  20
          Schwarz screening/accCoul: 1.00D-08


 Loading old vectors from job with title :



   Time after variat. SCF:     27.0
   Time prior to 1st pass:     27.0

 Integral file          = ./H2COWat_VEMExc_CISHF.aoints.0
 Record size in doubles =  65536        No. of integs per rec  =  43688
 Max. records in memory =      9        Max. records in file   =  13331
 No. of bits per label  =      8        No. of bits per value  =     64


 #quartets = 6.120D+04 #integrals = 3.799D+05 #direct =  0.0% #cached =100.0%


File balance: exchanges=     0  moved=     0  time=   0.0

  Resetting Diis

           Memory utilization after 1st SCF pass: 
           Heap Space remaining (MW):       12.51            12512888
          Stack Space remaining (MW):       13.11            13106780

   convergence    iter        energy       DeltaE   RMS-Dens  Diis-err    time
 ---------------- ----- ----------------- --------- --------- ---------  ------
     COSMO solvation phase
 d= 0,ls=0.0          1   -113.9032552577 -1.45D+02  0.00D+00              27.3
 d= 0,ls=0.0          2   -113.9032552577  0.00D+00  0.00D+00              27.5


         Total DFT energy =     -113.903255257747
      One electron energy =     -217.765812513433
           Coulomb energy =       86.408474401415
    Exchange-Corr. energy =      -14.095212998610
 Nuclear repulsion energy =       31.351889783872

 Numeric. integr. density =        0.000000000000

     Total iterative time =      0.5s


 
                       DFT Final Molecular Orbital Analysis
                       ------------------------------------
 
 Vector    1  Occ=2.000000D+00  E=-2.057677D+01
              MO Center=  1.5D-17,  3.0D-17,  6.7D-01, r^2= 1.5D-02
   Bfn.  Coefficient  Atom+Function         Bfn.  Coefficient  Atom+Function  
  ----- ------------  ---------------      ----- ------------  ---------------
     1      0.551494  1 O  s                  2      0.471461  1 O  s          
 
 Vector    2  Occ=2.000000D+00  E=-1.135164D+01
              MO Center= -3.3D-17, -4.1D-17, -5.3D-01, r^2= 2.7D-02
   Bfn.  Coefficient  Atom+Function         Bfn.  Coefficient  Atom+Function  
  ----- ------------  ---------------      ----- ------------  ---------------
    24      0.563540  2 C  s                 25      0.466229  2 C  s          
 
 Vector    3  Occ=2.000000D+00  E=-1.418991D+00
              MO Center= -6.5D-16,  7.7D-16,  3.5D-01, r^2= 4.9D-01
   Bfn.  Coefficient  Atom+Function         Bfn.  Coefficient  Atom+Function  
  ----- ------------  ---------------      ----- ------------  ---------------
     6      0.500172  1 O  s                 10      0.355355  1 O  s          
    29      0.245170  2 C  s                  2     -0.177278  1 O  s          
 
 Vector    4  Occ=2.000000D+00  E=-8.675442D-01
              MO Center=  2.6D-16, -7.2D-15, -4.9D-01, r^2= 1.4D+00
   Bfn.  Coefficient  Atom+Function         Bfn.  Coefficient  Atom+Function  
  ----- ------------  ---------------      ----- ------------  ---------------
    29      0.419053  2 C  s                 33      0.312911  2 C  s          
    10     -0.279853  1 O  s                  6     -0.238379  1 O  s          
 
 Vector    5  Occ=2.000000D+00  E=-6.957223D-01
              MO Center=  6.0D-18, -1.6D-14, -2.4D-01, r^2= 1.3D+00
   Bfn.  Coefficient  Atom+Function         Bfn.  Coefficient  Atom+Function  
  ----- ------------  ---------------      ----- ------------  ---------------
    31      0.303975  2 C  py                 8      0.257039  1 O  py         
    12      0.197975  1 O  py                27      0.174045  2 C  py         
     4      0.163820  1 O  py         
 
 Vector    6  Occ=2.000000D+00  E=-6.625896D-01
              MO Center=  3.4D-16,  1.8D-14,  3.1D-01, r^2= 1.3D+00
   Bfn.  Coefficient  Atom+Function         Bfn.  Coefficient  Atom+Function  
  ----- ------------  ---------------      ----- ------------  ---------------
     9      0.339657  1 O  pz                10      0.287499  1 O  s          
    32     -0.282752  2 C  pz                 5      0.227185  1 O  pz         
    13      0.224709  1 O  pz                28     -0.172361  2 C  pz         
     6      0.164206  1 O  s          
 
 Vector    7  Occ=2.000000D+00  E=-5.524377D-01
              MO Center=  1.6D-16,  2.1D-16,  3.4D-01, r^2= 9.3D-01
   Bfn.  Coefficient  Atom+Function         Bfn.  Coefficient  Atom+Function  
  ----- ------------  ---------------      ----- ------------  ---------------
     7      0.361784  1 O  px                11      0.328204  1 O  px         
     3      0.229562  1 O  px                30      0.228570  2 C  px         
 
 Vector    8  Occ=2.000000D+00  E=-4.439463D-01
              MO Center= -1.1D-17,  4.3D-15,  7.4D-03, r^2= 1.6D+00
   Bfn.  Coefficient  Atom+Function         Bfn.  Coefficient  Atom+Function  
  ----- ------------  ---------------      ----- ------------  ---------------
    12      0.379000  1 O  py                 8      0.366279  1 O  py         
     4      0.239441  1 O  py                48     -0.179210  3 H  s          
    51      0.179210  4 H  s                 31     -0.176280  2 C  py         
 
 Vector    9  Occ=0.000000D+00  E= 7.781498D-02
              MO Center= -2.0D-13, -7.9D-17, -8.3D-01, r^2= 6.6D+00
   Bfn.  Coefficient  Atom+Function         Bfn.  Coefficient  Atom+Function  
  ----- ------------  ---------------      ----- ------------  ---------------
    38      1.079005  2 C  px                15     -0.520437  1 O  px         
    34      0.220081  2 C  px                 7     -0.179300  1 O  px         
    30      0.174810  2 C  px                11     -0.170153  1 O  px         
 
 Vector   10  Occ=0.000000D+00  E= 7.815228D-02
              MO Center=  2.0D-13,  5.9D-13, -2.3D-01, r^2= 1.0D+01
   Bfn.  Coefficient  Atom+Function         Bfn.  Coefficient  Atom+Function  
  ----- ------------  ---------------      ----- ------------  ---------------
    37      2.921244  2 C  s                 14     -2.163299  1 O  s          
    17      0.577625  1 O  pz                33      0.568810  2 C  s          
    49     -0.470955  3 H  s                 52     -0.470955  4 H  s          
    36      0.399169  2 C  pz                40      0.357779  2 C  pz         
 
 Vector   11  Occ=0.000000D+00  E= 9.725686D-02
              MO Center= -1.6D-15,  4.1D-13, -1.3D+00, r^2= 1.1D+01
   Bfn.  Coefficient  Atom+Function         Bfn.  Coefficient  Atom+Function  
  ----- ------------  ---------------      ----- ------------  ---------------
    40     -1.718203  2 C  pz                14      1.580553  1 O  s          
    49     -0.487832  3 H  s                 52     -0.487832  4 H  s          
    33     -0.475695  2 C  s                 37     -0.222325  2 C  s          
    17     -0.200016  1 O  pz         
 
 Vector   12  Occ=0.000000D+00  E= 9.955689D-02
              MO Center=  1.5D-17, -9.3D-13, -5.9D-01, r^2= 1.2D+01
   Bfn.  Coefficient  Atom+Function         Bfn.  Coefficient  Atom+Function  
  ----- ------------  ---------------      ----- ------------  ---------------
    39      1.851217  2 C  py                49     -0.865758  3 H  s          
    52      0.865758  4 H  s                 16     -0.493798  1 O  py         
 
 Vector   13  Occ=0.000000D+00  E= 1.555908D-01
              MO Center= -1.8D-15, -9.4D-17, -1.3D-01, r^2= 5.6D+00
   Bfn.  Coefficient  Atom+Function         Bfn.  Coefficient  Atom+Function  
  ----- ------------  ---------------      ----- ------------  ---------------
    34      0.908530  2 C  px                38     -0.807408  2 C  px         
    15     -0.272054  1 O  px                11     -0.255001  1 O  px         
    30      0.243658  2 C  px                26      0.191467  2 C  px         
 
 Vector   14  Occ=0.000000D+00  E= 2.552888D-01
              MO Center=  4.3D-16,  1.8D-14,  1.2D+00, r^2= 5.9D+00
   Bfn.  Coefficient  Atom+Function         Bfn.  Coefficient  Atom+Function  
  ----- ------------  ---------------      ----- ------------  ---------------
    17      2.269144  1 O  pz                33      2.189321  2 C  s          
    14     -1.037214  1 O  s                 40     -0.596695  2 C  pz         
    13     -0.279366  1 O  pz                10     -0.272505  1 O  s          
    36      0.233695  2 C  pz         
 
 Vector   15  Occ=0.000000D+00  E= 2.621141D-01
              MO Center= -8.3D-16,  6.2D-13, -1.2D+00, r^2= 5.4D+00
   Bfn.  Coefficient  Atom+Function         Bfn.  Coefficient  Atom+Function  
  ----- ------------  ---------------      ----- ------------  ---------------
    49      2.614672  3 H  s                 52      2.614672  4 H  s          
    37     -1.758165  2 C  s                 33     -1.542931  2 C  s          
    36      1.057841  2 C  pz                14     -0.932621  1 O  s          
    17      0.701914  1 O  pz                40      0.634460  2 C  pz         
 
 Vector   16  Occ=0.000000D+00  E= 2.898523D-01
              MO Center=  3.2D-17, -4.0D-13,  2.9D-01, r^2= 6.8D+00
   Bfn.  Coefficient  Atom+Function         Bfn.  Coefficient  Atom+Function  
  ----- ------------  ---------------      ----- ------------  ---------------
    16      1.634951  1 O  py                49     -1.008159  3 H  s          
    52      1.008159  4 H  s                 12     -0.582225  1 O  py         
    39     -0.359115  2 C  py                48      0.160431  3 H  s          
    51     -0.160431  4 H  s          
 
 Vector   17  Occ=0.000000D+00  E= 3.065750D-01
              MO Center=  2.5D-14, -7.1D-18,  5.2D-01, r^2= 6.6D+00
   Bfn.  Coefficient  Atom+Function         Bfn.  Coefficient  Atom+Function  
  ----- ------------  ---------------      ----- ------------  ---------------
    15      1.937269  1 O  px                38     -1.023650  2 C  px         
    11     -0.704682  1 O  px         
 
 Vector   18  Occ=0.000000D+00  E= 3.315476D-01
              MO Center=  3.9D-17,  9.3D-13, -7.3D-01, r^2= 7.6D+00
   Bfn.  Coefficient  Atom+Function         Bfn.  Coefficient  Atom+Function  
  ----- ------------  ---------------      ----- ------------  ---------------
    49      2.880405  3 H  s                 52     -2.880405  4 H  s          
    39     -1.951321  2 C  py                35     -1.764411  2 C  py         
    16      1.488750  1 O  py                27     -0.160094  2 C  py         
    31     -0.158293  2 C  py         
 
 Vector   19  Occ=0.000000D+00  E= 3.655959D-01
              MO Center= -2.2D-14, -1.1D-12,  7.2D-01, r^2= 6.3D+00
   Bfn.  Coefficient  Atom+Function         Bfn.  Coefficient  Atom+Function  
  ----- ------------  ---------------      ----- ------------  ---------------
    14      6.356588  1 O  s                 37     -2.919871  2 C  s          
    33     -2.120921  2 C  s                 10     -1.489236  1 O  s          
    40     -1.460023  2 C  pz                17     -1.124093  1 O  pz         
    36     -0.393202  2 C  pz                13     -0.267734  1 O  pz         
 
 Vector   20  Occ=0.000000D+00  E= 4.784298D-01
              MO Center=  9.9D-16, -5.2D-14, -1.2D+00, r^2= 3.6D+00
   Bfn.  Coefficient  Atom+Function         Bfn.  Coefficient  Atom+Function  
  ----- ------------  ---------------      ----- ------------  ---------------
    14      4.187953  1 O  s                 33     -3.481087  2 C  s          
    36     -3.383304  2 C  pz                10      1.703718  1 O  s          
    17     -1.506552  1 O  pz                37     -1.445888  2 C  s          
    13     -1.050807  1 O  pz                48     -0.467887  3 H  s          
    51     -0.467887  4 H  s                 40      0.221441  2 C  pz         
 
 Vector   21  Occ=0.000000D+00  E= 6.310652D-01
              MO Center= -1.4D-14, -2.3D-13, -7.5D-01, r^2= 3.8D+00
   Bfn.  Coefficient  Atom+Function         Bfn.  Coefficient  Atom+Function  
  ----- ------------  ---------------      ----- ------------  ---------------
    33     -3.754190  2 C  s                 14      3.530373  1 O  s          
    49     -1.830738  3 H  s                 52     -1.830738  4 H  s          
    48      1.365784  3 H  s                 51      1.365784  4 H  s          
    36     -1.208470  2 C  pz                17     -1.190932  1 O  pz         
    13     -0.864240  1 O  pz                10      0.849801  1 O  s          
 

 center of mass
 --------------
 x =   0.00000000 y =   0.00000000 z =   0.13894085

 moments of inertia (a.u.)
 ------------------
          52.580104018329           0.000000000000           0.000000000000
           0.000000000000          46.260024154175           0.000000000000
           0.000000000000           0.000000000000           6.320079864154
 
     Multipole analysis of the density
     ---------------------------------
 
     L   x y z        total         alpha         beta         nuclear
     -   - - -        -----         -----         ----         -------
     0   0 0 0      0.000000     -8.000000     -8.000000     16.000000
 
     1   1 0 0      0.000000      0.000000      0.000000      0.000000
     1   0 1 0      0.000000      0.000000      0.000000      0.000000
     1   0 0 1     -1.585455     -0.792726     -0.792726     -0.000004
 
     2   2 0 0     -8.677280     -4.338640     -4.338640      0.000000
     2   1 1 0      0.000000      0.000000      0.000000      0.000000
     2   1 0 1      0.000000      0.000000      0.000000      0.000000
     2   0 2 0     -8.352726     -7.311868     -7.311868      6.271009
     2   0 1 1      0.000000      0.000000      0.000000      0.000000
     2   0 0 2     -8.995920    -18.407128    -18.407128     27.818335
 

 Parallel integral file used      11 records with       0 large values

                                NWChem TDDFT Module
                                -------------------
 
 
            General Information
            -------------------
           No. of orbitals :   104
            Alpha orbitals :    52
             Beta orbitals :    52
        Alpha frozen cores :     0
         Beta frozen cores :     0
     Alpha frozen virtuals :     0
      Beta frozen virtuals :     0
         Spin multiplicity :     1
    Number of AO functions :    52
        Use of symmetry is : off
      Symmetry adaption is : off
         Schwarz screening : 0.10D-07
 
              XC Information
              --------------
              Hartree-Fock (Exact) Exchange   1.00          
 
             TDDFT Information
             -----------------
          Calculation type : CIS               
         Wavefunction type : Restricted singlets
          No. of electrons :    16
           Alpha electrons :     8
            Beta electrons :     8
              No. of roots :    10
          Max subspacesize :  6000
            Max iterations :   100
               Target root :     1
           Target symmetry : none
      Symmetry restriction : off
                 Algorithm : Incore multiple tensor contraction
        Davidson threshold : 0.10D-03
 
 solvent parameters
 solvname_short: h2o     
 solvname_long:  water                              
 dielec:       78.4000
 dielecinf:     1.8000
 aqueous SMD model solvent descriptors
 dielec:       78.4000
 sola:          0.8200

 solvent accessible surface
 --------------------------

 ---------- ATOMIC COORDINATES (A.U.) ------------ VDWR(ANG.) --
     1    0.00000000    0.00000000    1.27426302     1.520
     2    0.00000000    0.00000000   -0.99749753     1.850
     3    0.00000000    1.77073561   -2.10456138     1.200
     4    0.00000000   -1.77073561   -2.10456138     1.200
 number of segments per atom =        128
 number of   points per atom =        128
 atom (   nspa,  nppa )
 ----------------------
    1 (     80,     0 )       0
    2 (     84,     0 )       0
    3 (     56,     0 )       0
    4 (     56,     0 )       0
 number of -cosmo- surface points =      276
 molecular surface =     53.589 angstrom**2
 molecular volume  =     28.564 angstrom**3
 G(SMD-CDS) energy (kcal/mol)  =     4.106
 SMD-CDS SASA (angstrom**2)    =    74.096

 
            Memory Information
            ------------------
          Available GA space size is         104854068 doubles
          Available MA space size is          26209748 doubles
          Length of a trial vector is          352
          Estimated peak GA usage is           6563952 doubles
          Estimated peak MA usage is             51000 doubles
 
   10 smallest eigenvalue differences (eV) 
--------------------------------------------------------
  No. Spin  Occ  Vir  Irrep   E(Occ)    E(Vir)   E(Diff)
--------------------------------------------------------
    1    1    8    9 a        -0.444     0.078    14.198
    2    1    8   10 a        -0.444     0.078    14.207
    3    1    8   11 a        -0.444     0.097    14.727
    4    1    8   12 a        -0.444     0.100    14.789
    5    1    8   13 a        -0.444     0.156    16.314
    6    1    7    9 a        -0.552     0.078    17.150
    7    1    7   10 a        -0.552     0.078    17.159
    8    1    7   11 a        -0.552     0.097    17.679
    9    1    7   12 a        -0.552     0.100    17.742
   10    1    8   14 a        -0.444     0.255    19.027
--------------------------------------------------------

  Entering Davidson iterations
  Restricted singlet excited states

  Iter   NTrls   NConv    DeltaV     DeltaE      Time   
  ----  ------  ------  ---------  ---------  --------- 
    1     10       0     0.20E+00   0.10+100        1.1
    2     20       0     0.10E+00   0.37E-01        1.1
    3     30       0     0.36E-01   0.23E-01        1.2
    4     40       0     0.23E+00   0.48E-01        1.1
    5     50       0     0.54E-01   0.27E-01        1.1
    6     60       3     0.14E-01   0.18E-02        1.1
    7     67       5     0.33E-02   0.65E-04        1.0
    8     72       9     0.60E-03   0.25E-05        1.0
    9     73      10     0.94E-04   0.77E-07        0.8
  ----  ------  ------  ---------  ---------  --------- 
  Convergence criterion met
 
  Ground state a        -113.903255257747 a.u.
 
  ----------------------------------------------------------------------------
  Root   1 singlet a              0.177104275 a.u.                4.8193 eV 
  ----------------------------------------------------------------------------
     Transition Moments    X  0.00000   Y  0.00000   Z  0.00000
     Transition Moments   XX  0.00000  XY  0.67221  XZ  0.00000
     Transition Moments   YY  0.00000  YZ  0.00000  ZZ  0.00000
     Dipole Oscillator Strength                         0.00000
 
     Occ.    5  a   ---  Virt.    9  a      0.05346
     Occ.    8  a   ---  Virt.    9  a      0.75183
     Occ.    8  a   ---  Virt.   13  a      0.60575
     Occ.    8  a   ---  Virt.   17  a      0.21817
     Occ.    8  a   ---  Virt.   23  a     -0.08837
     Occ.    8  a   ---  Virt.   28  a      0.05491
  ----------------------------------------------------------------------------
  Root   2 singlet a              0.322171000 a.u.                8.7667 eV 
  ----------------------------------------------------------------------------
     Transition Moments    X  0.00000   Y  0.05886   Z  0.00000
     Transition Moments   XX  0.00000  XY  0.00000  XZ  0.00000
     Transition Moments   YY  0.00000  YZ -1.50288  ZZ  0.00000
     Dipole Oscillator Strength                         0.00074
 
     Occ.    5  a   ---  Virt.   11  a     -0.06222
     Occ.    8  a   ---  Virt.   10  a      0.92144
     Occ.    8  a   ---  Virt.   11  a     -0.28260
     Occ.    8  a   ---  Virt.   15  a      0.09300
     Occ.    8  a   ---  Virt.   19  a      0.22025
  ----------------------------------------------------------------------------
  Root   3 singlet a              0.359024225 a.u.                9.7696 eV 
  ----------------------------------------------------------------------------
     Transition Moments    X  0.00000   Y  0.59212   Z  0.00000
     Transition Moments   XX  0.00000  XY  0.00000  XZ  0.00000
     Transition Moments   YY  0.00000  YZ -1.18631  ZZ  0.00000
     Dipole Oscillator Strength                         0.08392
 
     Occ.    5  a   ---  Virt.   10  a     -0.09354
     Occ.    5  a   ---  Virt.   11  a     -0.05662
     Occ.    8  a   ---  Virt.   10  a      0.28516
     Occ.    8  a   ---  Virt.   11  a      0.91772
     Occ.    8  a   ---  Virt.   14  a     -0.08013
     Occ.    8  a   ---  Virt.   15  a      0.16343
     Occ.    8  a   ---  Virt.   19  a     -0.10499
     Occ.    8  a   ---  Virt.   20  a      0.11381
  ----------------------------------------------------------------------------
  Root   4 singlet a              0.360971241 a.u.                9.8225 eV 
  ----------------------------------------------------------------------------
     Transition Moments    X  0.00000   Y  0.00000   Z -0.98775
     Transition Moments   XX  0.52951  XY  0.00000  XZ  0.00000
     Transition Moments   YY  0.71929  YZ  0.00000  ZZ -0.09982
     Dipole Oscillator Strength                         0.23479
 
     Occ.    4  a   ---  Virt.   10  a     -0.05587
     Occ.    5  a   ---  Virt.   16  a      0.08371
     Occ.    7  a   ---  Virt.    9  a     -0.44786
     Occ.    7  a   ---  Virt.   13  a     -0.33220
     Occ.    7  a   ---  Virt.   17  a     -0.08243
     Occ.    8  a   ---  Virt.   12  a      0.77195
     Occ.    8  a   ---  Virt.   16  a      0.18853
     Occ.    8  a   ---  Virt.   18  a      0.13764
     Occ.    8  a   ---  Virt.   22  a      0.08439
  ----------------------------------------------------------------------------
  Root   5 singlet a              0.378208632 a.u.               10.2916 eV 
  ----------------------------------------------------------------------------
     Transition Moments    X -0.01308   Y  0.00000   Z  0.00000
     Transition Moments   XX  0.00000  XY  0.00000  XZ  1.12018
     Transition Moments   YY  0.00000  YZ  0.00000  ZZ  0.00000
     Dipole Oscillator Strength                         0.00004
 
     Occ.    3  a   ---  Virt.    9  a     -0.05255
     Occ.    3  a   ---  Virt.   13  a     -0.06044
     Occ.    6  a   ---  Virt.    9  a      0.73004
     Occ.    6  a   ---  Virt.   13  a      0.62079
     Occ.    6  a   ---  Virt.   17  a      0.22926
     Occ.    6  a   ---  Virt.   23  a     -0.11282
     Occ.    6  a   ---  Virt.   28  a      0.06199
  ----------------------------------------------------------------------------
  Root   6 singlet a              0.378307953 a.u.               10.2943 eV 
  ----------------------------------------------------------------------------
     Transition Moments    X  0.00000   Y  0.00000   Z  0.00000
     Transition Moments   XX  0.00000  XY  0.00756  XZ  0.00000
     Transition Moments   YY  0.00000  YZ  0.00000  ZZ  0.00000
     Dipole Oscillator Strength                         0.00000
 
     Occ.    5  a   ---  Virt.    9  a      0.09249
     Occ.    5  a   ---  Virt.   13  a      0.10061
     Occ.    5  a   ---  Virt.   17  a      0.07852
     Occ.    8  a   ---  Virt.    9  a      0.57991
     Occ.    8  a   ---  Virt.   13  a     -0.77924
     Occ.    8  a   ---  Virt.   17  a      0.14098
     Occ.    8  a   ---  Virt.   23  a      0.09789
  ----------------------------------------------------------------------------
  Root   7 singlet a              0.380758960 a.u.               10.3610 eV 
  ----------------------------------------------------------------------------
     Transition Moments    X  0.00000   Y  0.00000   Z  0.53157
     Transition Moments   XX -0.48991  XY  0.00000  XZ  0.00000
     Transition Moments   YY  0.64531  YZ  0.00000  ZZ  0.91977
     Dipole Oscillator Strength                         0.07173
 
     Occ.    6  a   ---  Virt.   20  a     -0.07483
     Occ.    6  a   ---  Virt.   24  a      0.05205
     Occ.    6  a   ---  Virt.   26  a     -0.05264
     Occ.    6  a   ---  Virt.   27  a     -0.05078
     Occ.    7  a   ---  Virt.    9  a      0.63461
     Occ.    7  a   ---  Virt.   13  a      0.39895
     Occ.    7  a   ---  Virt.   17  a      0.09848
     Occ.    8  a   ---  Virt.   12  a      0.59017
     Occ.    8  a   ---  Virt.   16  a     -0.12012
     Occ.    8  a   ---  Virt.   18  a      0.15742
     Occ.    8  a   ---  Virt.   22  a     -0.08111
  ----------------------------------------------------------------------------
  Root   8 singlet a              0.413147360 a.u.               11.2423 eV 
  ----------------------------------------------------------------------------
     Transition Moments    X  0.00000   Y  0.00000   Z  0.00000
     Transition Moments   XX  0.00000  XY -0.73398  XZ  0.00000
     Transition Moments   YY  0.00000  YZ  0.00000  ZZ  0.00000
     Dipole Oscillator Strength                         0.00000
 
     Occ.    5  a   ---  Virt.    9  a      0.71412
     Occ.    5  a   ---  Virt.   13  a      0.60711
     Occ.    5  a   ---  Virt.   17  a      0.18569
     Occ.    5  a   ---  Virt.   23  a     -0.10651
     Occ.    8  a   ---  Virt.    9  a     -0.20026
     Occ.    8  a   ---  Virt.   13  a      0.06757
     Occ.    8  a   ---  Virt.   17  a      0.15656
  ----------------------------------------------------------------------------
  Root   9 singlet a              0.428122948 a.u.               11.6498 eV 
  ----------------------------------------------------------------------------
     Transition Moments    X -0.62275   Y  0.00000   Z  0.00000
     Transition Moments   XX  0.00000  XY  0.00000  XZ -0.46616
     Transition Moments   YY  0.00000  YZ  0.00000  ZZ  0.00000
     Dipole Oscillator Strength                         0.11069
 
     Occ.    7  a   ---  Virt.   10  a      0.89343
     Occ.    7  a   ---  Virt.   11  a     -0.37727
     Occ.    7  a   ---  Virt.   15  a      0.05495
[...]
             -----------------
          Calculation type : CIS               
         Wavefunction type : Restricted singlets
          No. of electrons :    16
           Alpha electrons :     8
            Beta electrons :     8
              No. of roots :    10
          Max subspacesize :  6000
            Max iterations :   100
               Target root :     1
           Target symmetry : none
      Symmetry restriction : off
                 Algorithm : Incore multiple tensor contraction
        Davidson threshold : 0.10D-03
 
 solvent parameters
 solvname_short: h2o     
 solvname_long:  water                              
 dielec:       78.4000
 dielecinf:     1.8000
 aqueous SMD model solvent descriptors
 dielec:       78.4000
 sola:          0.8200

 solvent accessible surface
 --------------------------

 ---------- ATOMIC COORDINATES (A.U.) ------------ VDWR(ANG.) --
     1    0.00000000    0.00000000    1.27426302     1.520
     2    0.00000000    0.00000000   -0.99749753     1.850
     3    0.00000000    1.77073561   -2.10456138     1.200
     4    0.00000000   -1.77073561   -2.10456138     1.200
 number of segments per atom =        128
 number of   points per atom =        128
 atom (   nspa,  nppa )
 ----------------------
    1 (     80,     0 )       0
    2 (     84,     0 )       0
    3 (     56,     0 )       0
    4 (     56,     0 )       0
 number of -cosmo- surface points =      276
 molecular surface =     53.589 angstrom**2
 molecular volume  =     28.564 angstrom**3
 G(SMD-CDS) energy (kcal/mol)  =     4.106
 SMD-CDS SASA (angstrom**2)    =    74.096

 
            Memory Information
            ------------------
          Available GA space size is         104854068 doubles
          Available MA space size is          26209748 doubles
          Length of a trial vector is          352
          Estimated peak GA usage is           6563952 doubles
          Estimated peak MA usage is             51000 doubles
 
   10 smallest eigenvalue differences (eV) 
--------------------------------------------------------
  No. Spin  Occ  Vir  Irrep   E(Occ)    E(Vir)   E(Diff)
--------------------------------------------------------
    1    1    8    9 a        -0.444     0.078    14.198
    2    1    8   10 a        -0.444     0.078    14.207
    3    1    8   11 a        -0.444     0.097    14.727
    4    1    8   12 a        -0.444     0.100    14.790
    5    1    8   13 a        -0.444     0.156    16.314
    6    1    7    9 a        -0.552     0.078    17.150
    7    1    7   10 a        -0.552     0.078    17.160
    8    1    7   11 a        -0.552     0.097    17.680
    9    1    7   12 a        -0.552     0.100    17.742
   10    1    8   14 a        -0.444     0.255    19.027
--------------------------------------------------------

  Entering Davidson iterations
  Restricted singlet excited states

  Iter   NTrls   NConv    DeltaV     DeltaE      Time   
  ----  ------  ------  ---------  ---------  --------- 
    1     10       0     0.20E+00   0.10+100        1.1
    2     20       0     0.10E+00   0.37E-01        1.1
    3     30       0     0.36E-01   0.23E-01        1.1
    4     40       0     0.23E+00   0.48E-01        1.1
    5     50       0     0.54E-01   0.27E-01        1.1
    6     60       3     0.14E-01   0.18E-02        1.1
    7     67       5     0.33E-02   0.65E-04        1.0
    8     72       9     0.60E-03   0.25E-05        1.0
    9     73      10     0.94E-04   0.77E-07        0.8
  ----  ------  ------  ---------  ---------  --------- 
  Convergence criterion met
 
  Ground state a        -113.903266968053 a.u.
 
  ----------------------------------------------------------------------------
  Root   1 singlet a              0.177105949 a.u.                4.8193 eV 
  ----------------------------------------------------------------------------
     Transition Moments    X  0.00000   Y  0.00000   Z  0.00000
     Transition Moments   XX  0.00000  XY -0.67220  XZ  0.00000
     Transition Moments   YY  0.00000  YZ  0.00000  ZZ  0.00000
     Dipole Oscillator Strength                         0.00000
 
     Occ.    5  a   ---  Virt.    9  a     -0.05346
     Occ.    8  a   ---  Virt.    9  a     -0.75183
     Occ.    8  a   ---  Virt.   13  a     -0.60576
     Occ.    8  a   ---  Virt.   17  a     -0.21817
     Occ.    8  a   ---  Virt.   23  a      0.08837
     Occ.    8  a   ---  Virt.   28  a     -0.05491
  ----------------------------------------------------------------------------
  Root   2 singlet a              0.322174491 a.u.                8.7668 eV 
  ----------------------------------------------------------------------------
     Transition Moments    X  0.00000   Y  0.05885   Z  0.00000
     Transition Moments   XX  0.00000  XY  0.00000  XZ  0.00000
     Transition Moments   YY  0.00000  YZ -1.50286  ZZ  0.00000
     Dipole Oscillator Strength                         0.00074
 
     Occ.    5  a   ---  Virt.   11  a     -0.06222
     Occ.    8  a   ---  Virt.   10  a      0.92144
     Occ.    8  a   ---  Virt.   11  a     -0.28259
     Occ.    8  a   ---  Virt.   15  a      0.09298
     Occ.    8  a   ---  Virt.   19  a      0.22026
  ----------------------------------------------------------------------------
  Root   3 singlet a              0.359030984 a.u.                9.7697 eV 
  ----------------------------------------------------------------------------
     Transition Moments    X  0.00000   Y  0.59210   Z  0.00000
     Transition Moments   XX  0.00000  XY  0.00000  XZ  0.00000
     Transition Moments   YY  0.00000  YZ -1.18624  ZZ  0.00000
     Dipole Oscillator Strength                         0.08391
 
     Occ.    5  a   ---  Virt.   10  a     -0.09355
     Occ.    5  a   ---  Virt.   11  a     -0.05662
     Occ.    8  a   ---  Virt.   10  a      0.28516
     Occ.    8  a   ---  Virt.   11  a      0.91772
     Occ.    8  a   ---  Virt.   14  a     -0.08015
     Occ.    8  a   ---  Virt.   15  a      0.16340
     Occ.    8  a   ---  Virt.   19  a     -0.10499
     Occ.    8  a   ---  Virt.   20  a      0.11380
  ----------------------------------------------------------------------------
  Root   4 singlet a              0.360982126 a.u.                9.8228 eV 
  ----------------------------------------------------------------------------
     Transition Moments    X  0.00000   Y  0.00000   Z  0.98776
     Transition Moments   XX -0.52951  XY  0.00000  XZ  0.00000
     Transition Moments   YY -0.71924  YZ  0.00000  ZZ  0.09988
     Dipole Oscillator Strength                         0.23480
 
     Occ.    4  a   ---  Virt.   10  a      0.05588
     Occ.    5  a   ---  Virt.   16  a     -0.08372
     Occ.    7  a   ---  Virt.    9  a      0.44787
     Occ.    7  a   ---  Virt.   13  a      0.33221
     Occ.    7  a   ---  Virt.   17  a      0.08244
     Occ.    8  a   ---  Virt.   12  a     -0.77193
     Occ.    8  a   ---  Virt.   16  a     -0.18855
     Occ.    8  a   ---  Virt.   18  a     -0.13764
     Occ.    8  a   ---  Virt.   22  a     -0.08439
  ----------------------------------------------------------------------------
  Root   5 singlet a              0.378221689 a.u.               10.2919 eV 
  ----------------------------------------------------------------------------
     Transition Moments    X -0.01308   Y  0.00000   Z  0.00000
     Transition Moments   XX  0.00000  XY  0.00000  XZ  1.12017
     Transition Moments   YY  0.00000  YZ  0.00000  ZZ  0.00000
     Dipole Oscillator Strength                         0.00004
 
     Occ.    3  a   ---  Virt.    9  a     -0.05255
     Occ.    3  a   ---  Virt.   13  a     -0.06044
     Occ.    6  a   ---  Virt.    9  a      0.73003
     Occ.    6  a   ---  Virt.   13  a      0.62079
     Occ.    6  a   ---  Virt.   17  a      0.22927
     Occ.    6  a   ---  Virt.   23  a     -0.11281
     Occ.    6  a   ---  Virt.   28  a      0.06199
  ----------------------------------------------------------------------------
  Root   6 singlet a              0.378308850 a.u.               10.2943 eV 
  ----------------------------------------------------------------------------
     Transition Moments    X  0.00000   Y  0.00000   Z  0.00000
     Transition Moments   XX  0.00000  XY -0.00751  XZ  0.00000
     Transition Moments   YY  0.00000  YZ  0.00000  ZZ  0.00000
     Dipole Oscillator Strength                         0.00000
 
     Occ.    5  a   ---  Virt.    9  a     -0.09253
     Occ.    5  a   ---  Virt.   13  a     -0.10065
     Occ.    5  a   ---  Virt.   17  a     -0.07854
     Occ.    8  a   ---  Virt.    9  a     -0.57990
     Occ.    8  a   ---  Virt.   13  a      0.77923
     Occ.    8  a   ---  Virt.   17  a     -0.14101
     Occ.    8  a   ---  Virt.   23  a     -0.09788
  ----------------------------------------------------------------------------
  Root   7 singlet a              0.380770540 a.u.               10.3613 eV 
  ----------------------------------------------------------------------------
     Transition Moments    X  0.00000   Y  0.00000   Z -0.53155
     Transition Moments   XX  0.48989  XY  0.00000  XZ  0.00000
     Transition Moments   YY -0.64535  YZ  0.00000  ZZ -0.91979
     Dipole Oscillator Strength                         0.07172
 
     Occ.    6  a   ---  Virt.   20  a      0.07483
     Occ.    6  a   ---  Virt.   24  a     -0.05205
     Occ.    6  a   ---  Virt.   26  a      0.05264
     Occ.    6  a   ---  Virt.   27  a      0.05077
     Occ.    7  a   ---  Virt.    9  a     -0.63459
     Occ.    7  a   ---  Virt.   13  a     -0.39895
     Occ.    7  a   ---  Virt.   17  a     -0.09848
     Occ.    8  a   ---  Virt.   12  a     -0.59019
     Occ.    8  a   ---  Virt.   16  a      0.12013
     Occ.    8  a   ---  Virt.   18  a     -0.15742
     Occ.    8  a   ---  Virt.   22  a      0.08111
  ----------------------------------------------------------------------------
  Root   8 singlet a              0.413139647 a.u.               11.2421 eV 
  ----------------------------------------------------------------------------
     Transition Moments    X  0.00000   Y  0.00000   Z  0.00000
     Transition Moments   XX  0.00000  XY -0.73398  XZ  0.00000
     Transition Moments   YY  0.00000  YZ  0.00000  ZZ  0.00000
     Dipole Oscillator Strength                         0.00000
 
     Occ.    5  a   ---  Virt.    9  a      0.71410
     Occ.    5  a   ---  Virt.   13  a      0.60711
     Occ.    5  a   ---  Virt.   17  a      0.18569
     Occ.    5  a   ---  Virt.   23  a     -0.10650
     Occ.    8  a   ---  Virt.    9  a     -0.20030
     Occ.    8  a   ---  Virt.   13  a      0.06761
     Occ.    8  a   ---  Virt.   17  a      0.15655
  ----------------------------------------------------------------------------
  Root   9 singlet a              0.428135596 a.u.               11.6502 eV 
  ----------------------------------------------------------------------------
     Transition Moments    X -0.62276   Y  0.00000   Z  0.00000
     Transition Moments   XX  0.00000  XY  0.00000  XZ -0.46616
     Transition Moments   YY  0.00000  YZ  0.00000  ZZ  0.00000
     Dipole Oscillator Strength                         0.11070
 
     Occ.    7  a   ---  Virt.   10  a      0.89344
     Occ.    7  a   ---  Virt.   11  a     -0.37726
     Occ.    7  a   ---  Virt.   15  a      0.05494
     Occ.    7  a   ---  Virt.   19  a      0.23133
  ----------------------------------------------------------------------------
  Root  10 singlet a              0.465843340 a.u.               12.6762 eV 
  ----------------------------------------------------------------------------
     Transition Moments    X  0.00000   Y  0.32222   Z  0.00000
     Transition Moments   XX  0.00000  XY  0.00000  XZ  0.00000
     Transition Moments   YY  0.00000  YZ  0.22107  ZZ  0.00000
     Dipole Oscillator Strength                         0.03224
 
     Occ.    5  a   ---  Virt.   10  a     -0.08451
     Occ.    5  a   ---  Virt.   11  a      0.11064
     Occ.    5  a   ---  Virt.   14  a     -0.09378
     Occ.    8  a   ---  Virt.   10  a     -0.07811
     Occ.    8  a   ---  Virt.   14  a     -0.96092
     Occ.    8  a   ---  Virt.   19  a      0.08971
     Occ.    8  a   ---  Virt.   20  a     -0.13560
     Occ.    8  a   ---  Virt.   27  a     -0.05486
 
              Target root =      1
          Target symmetry = none
      Ground state energy =   -113.903266968053
        Excitation energy =      0.177105949130
     Excited state energy =   -113.726161018923
 
 fn_civecs: 
 ./H2COWat_VEMExc_CISHF.civecs_singlet                                          
                                                                                
                                                                                
                   

  CI vectors are stored in ./H2COWat_VEMExc_CISHF.civecs_si
 
 
                           NWChem TDDFT Gradient Module
                           ----------------------------
 
 
 ./H2COWat_VEMExc_CISHF.civecs_singlet                                          
                                                                                
                                                                                
                   
 
 solvent parameters
 solvname_short: h2o     
 solvname_long:  water                              
 dielec:       78.4000
 dielecinf:     1.8000
 aqueous SMD model solvent descriptors
 dielec:       78.4000
 sola:          0.8200

 solvent accessible surface
 --------------------------

 ---------- ATOMIC COORDINATES (A.U.) ------------ VDWR(ANG.) --
     1    0.00000000    0.00000000    1.27426302     1.520
     2    0.00000000    0.00000000   -0.99749753     1.850
     3    0.00000000    1.77073561   -2.10456138     1.200
     4    0.00000000   -1.77073561   -2.10456138     1.200
 number of segments per atom =        128
 number of   points per atom =        128
 atom (   nspa,  nppa )
 ----------------------
    1 (     80,     0 )       0
    2 (     84,     0 )       0
    3 (     56,     0 )       0
    4 (     56,     0 )       0
 number of -cosmo- surface points =      276
 molecular surface =     53.589 angstrom**2
 molecular volume  =     28.564 angstrom**3
 G(SMD-CDS) energy (kcal/mol)  =     4.106
 SMD-CDS SASA (angstrom**2)    =    74.096

 Calculated gradients of:
 Number of Singlet roots   1
 Singlet roots    1 
 
 Start at time  cpu:       62.2s  wall:       71.8s
 
TDDFT Energy Check(  1) =       0.17710594913014


Iterative solution of linear equations
  No. of variables      352
  No. of equations        1
  Maximum subspace       40
        Iterations      250
       Convergence  1.0D-05
        Start time     75.7


   iter   nsub   residual    time
   ----  ------  --------  ---------
     1      1    1.22D-01      76.7
     2      2    2.65D-02      77.6
     3      3    5.46D-03      78.5
     4      4    1.37D-03      79.4
     5      5    4.09D-04      80.3
     6      6    8.43D-05      81.3
     7      7    1.54D-05      82.2
     8      8    1.66D-06      83.1
     Dipole Moment    X  0.00000   Y  0.00000   Z -1.04390
 
     No. of electrons (tr(P*S)):     0.1600000E+02
 

                          COSMO-VEM solvation results
                          ---------------------------
 Reference for the VEM model:
 Marenich, A. V.; Cramer, C. J.; Truhlar, D. G.; Guido, C. A.; Mennucci, B.;
 Scalmani, G.; Frisch, M. J. Chem. Sci. 2011, 2, 2143

 excitation spectrum data:  GS = initial state, ES = final state
 iteration #3
 (1)          GS equilibrium total free energy =      -113.9129453243
 (2)               GS polarization free energy =        -0.0189147085 (   -0.5147 eV)
 (3)                 GSRF ES total free energy =      -113.7289355325
 (4)          GSRF ES polarization free energy =        -0.0049921254 (   -0.1358 eV)
 (5)          GSRF excitation energy (3) - (1) =         0.1840097919 (    5.0072 eV)
 (6)                  VEM ES total free energy =      -113.7329062799
 (7)           VEM ES polarization free energy =        -0.0079252207 (   -0.2157 eV)
 (8)        fast polarization component of (7) =        -0.0051804834 (   -0.1410 eV)
 (9)                 1/2 * delV * delQdyn term =        -0.0029330953 (   -0.0798 eV)
 (10) VEM vertical excitation energy (6) - (1) =         0.1800390444 (    4.8991 eV)

 VEM vertical excitation energy converged
 
 TDDFT Gradient time  cpu:       14.5s  wall:       16.3s

 Task  times  cpu:       76.6s     wall:       88.0s
 
 
                                NWChem Input Module
                                -------------------
 
 
 Summary of allocated global arrays
-----------------------------------
  No active global arrays



                         GA Statistics for process    0
                         ------------------------------

       create   destroy   get      put      acc     scatter   gather  read&inc
calls: 3360     3360     1.02e+07 1.08e+05 5.04e+06  503        0     6170     
number of processes/call 1.01e+00 1.80e+00 1.00e+00 0.00e+00 0.00e+00
bytes total:             1.46e+09 6.04e+07 9.45e+08 1.60e+02 0.00e+00 4.94e+04
bytes remote:            2.86e+07 9.99e+06 6.57e+06 -5.44e+02 0.00e+00 0.00e+00
Max memory consumed for GA by this process: 9215496 bytes
 
MA_summarize_allocated_blocks: starting scan ...
MA_summarize_allocated_blocks: scan completed: 0 heap blocks, 0 stack blocks
MA usage statistics:

	allocation statistics:
					      heap	     stack
					      ----	     -----
	current number of blocks	         0	         0
	maximum number of blocks	        23	        71
	current total bytes		         0	         0
	maximum total bytes		   4755016	  34637064
	maximum total K-bytes		      4756	     34638
	maximum total M-bytes		         5	        35
 
 
                                     CITATION
                                     --------
                Please cite the following reference when publishing
                           results obtained with NWChem:
 
                 M. Valiev, E.J. Bylaska, N. Govind, K. Kowalski,
              T.P. Straatsma, H.J.J. van Dam, D. Wang, J. Nieplocha,
                        E. Apra, T.L. Windus, W.A. de Jong
                 "NWChem: a comprehensive and scalable open-source
                  solution for large scale molecular simulations"
                      Comput. Phys. Commun. 181, 1477 (2010)
                           doi:10.1016/j.cpc.2010.04.018
 
                                      AUTHORS
                                      -------
          E. Apra, E. J. Bylaska, W. A. de Jong, N. Govind, K. Kowalski,
       T. P. Straatsma, M. Valiev, H. J. J. van Dam, D. Wang, T. L. Windus,
        J. Hammond, J. Autschbach, K. Bhaskaran-Nair, J. Brabec, K. Lopata,
       S. A. Fischer, S. Krishnamoorthy, W. Ma, M. Klemm, O. Villa, Y. Chen,
    V. Anisimov, F. Aquino, S. Hirata, M. T. Hackler, T. Risthaus, M. Malagoli,
       A. Marenich, A. Otero-de-la-Roza, J. Mullin, P. Nichols, R. Peverati,
     J. Pittner, Y. Zhao, P.-D. Fan, A. Fonari, M. Williamson, R. J. Harrison,
       J. R. Rehr, M. Dupuis, D. Silverstein, D. M. A. Smith, J. Nieplocha,
        V. Tipparaju, M. Krishnan, B. E. Van Kuiken, A. Vazquez-Mayagoitia,
        L. Jensen, M. Swart, Q. Wu, T. Van Voorhis, A. A. Auer, M. Nooijen,
      L. D. Crosby, E. Brown, G. Cisneros, G. I. Fann, H. Fruchtl, J. Garza,
        K. Hirao, R. A. Kendall, J. A. Nichols, K. Tsemekhman, K. Wolinski,
     J. Anchell, D. E. Bernholdt, P. Borowski, T. Clark, D. Clerc, H. Dachsel,
   M. J. O. Deegan, K. Dyall, D. Elwood, E. Glendening, M. Gutowski, A. C. Hess,
         J. Jaffe, B. G. Johnson, J. Ju, R. Kobayashi, R. Kutteh, Z. Lin,
   R. Littlefield, X. Long, B. Meng, T. Nakajima, S. Niu, L. Pollack, M. Rosing,
   K. Glaesemann, G. Sandrone, M. Stave, H. Taylor, G. Thomas, J. H. van Lenthe,
                               A. T. Wong, Z. Zhang.

 Total times  cpu:       76.7s     wall:       88.2s
