 argument  1 = ./H2COWat_VEMExc_CISHF.nw



============================== echo of input deck ==============================
# COSMO-VEM solvation results
# excitation spectrum data:  GS = initial state, ES = final state
# iteration #3
# (1)          GS equilibrium total free energy =      -113.9129453243
# (2)               GS polarization free energy =        -0.0189146916 (   -0.5147 eV)
# (3)                 GSRF ES total free energy =      -113.7289355322
# (4)          GSRF ES polarization free energy =        -0.0049921325 (   -0.1358 eV)
# (5)          GSRF excitation energy (3) - (1) =         0.1840097921 (    5.0072 eV)
# (6)                  VEM ES total free energy =      -113.7329062888
# (7)           VEM ES polarization free energy =        -0.0079252246 (   -0.2157 eV)
# (8)        fast polarization component of (7) =        -0.0051804833 (   -0.1410 eV)
# (9)                 1/2 * delV * delQdyn term =        -0.0029330921 (   -0.0798 eV)
# (10) VEM vertical excitation energy (6) - (1) =         0.1800390355 (    4.8991 eV)
#
echo 'VEM/SMD/CIS-HF/6-311+G(d) vertical excitation energy - formaldehyde in water with eps=78.4 and epsopt=1.8'

start H2COWat_VEMExc_CISHF

geometry nocenter
  O    0.0000000000    0.0000000000    0.6743110000
  C    0.0000000000    0.0000000000   -0.5278530000
  H    0.0000000000    0.9370330000   -1.1136860000
  H    0.0000000000   -0.9370330000   -1.1136860000
symmetry c1
end

basis
 * library 6-311+G*
end

dft
 XC HFexch
end

cosmo
 do_cosmo_smd true
 do_cosmo_vem 1
 solvent h2o
 dielec 78.4
 dielecinf 1.8
end

tddft
 cis
 nroots 10
 target 1
 singlet
 notriplet
 algorithm 1
 civecs
 grad
  root 1
  solve_thresh 1d-05
 end
end
task tddft gradient
================================================================================


                                         
                                         


             Northwest Computational Chemistry Package (NWChem) 7.0.1
             --------------------------------------------------------


                    Environmental Molecular Sciences Laboratory
                       Pacific Northwest National Laboratory
                                Richland, WA 99352

                              Copyright (c) 1994-2020
                       Pacific Northwest National Laboratory
                            Battelle Memorial Institute

             NWChem is an open-source computational chemistry package
                        distributed under the terms of the
                      Educational Community License (ECL) 2.0
             A copy of the license is included with this distribution
                              in the LICENSE.TXT file

                                  ACKNOWLEDGMENT
                                  --------------

            This software and its documentation were developed at the
            EMSL at Pacific Northwest National Laboratory, a multiprogram
            national laboratory, operated for the U.S. Department of Energy
            by Battelle under Contract Number DE-AC05-76RL01830. Support
            for this work was provided by the Department of Energy Office
            of Biological and Environmental Research, Office of Basic
            Energy Sciences, and the Office of Advanced Scientific Computing.


           Job information
           ---------------

    hostname        = WE41476
    program         = nwchem
    date            = Thu Nov 11 14:57:45 2021

    compiled        = Thu_Nov_11_13:51:38_2021
    source          = /Users/meji656/Sources/nwchem
    nwchem branch   = 7.0.0
    nwchem revision = nwchem_on_git-3012-g75ff49f32d
    ga revision     = 5.8.0
    use scalapack   = F
    input           = ./H2COWat_VEMExc_CISHF.nw
    prefix          = H2COWat_VEMExc_CISHF.
    data base       = ./H2COWat_VEMExc_CISHF.db
    status          = startup
    nproc           =        4
    time left       =     -1s



           Memory information
           ------------------

    heap     =   13107196 doubles =    100.0 Mbytes
    stack    =   13107201 doubles =    100.0 Mbytes
    global   =   26214400 doubles =    200.0 Mbytes (distinct from heap & stack)
    total    =   52428797 doubles =    400.0 Mbytes
    verify   = yes
    hardfail = no 


           Directory information
           ---------------------

  0 permanent = .
  0 scratch   = .




                                NWChem Input Module
                                -------------------



 Scaling coordinates for geometry "geometry" by  1.889725989
 (inverse scale =  0.529177249)

 Turning off AUTOSYM since
 SYMMETRY directive was detected!


          ------
          auto-z
          ------
  Looking for out-of-plane bends
  no constraints, skipping    0.0000000000000000     
  no constraints, skipping    0.0000000000000000     


                             Geometry "geometry" -> ""
                             -------------------------

 Output coordinates in angstroms (scale by  1.889725989 to convert to a.u.)

  No.       Tag          Charge          X              Y              Z
 ---- ---------------- ---------- -------------- -------------- --------------
    1 O                    8.0000     0.00000000     0.00000000     0.67431100
    2 C                    6.0000     0.00000000     0.00000000    -0.52785300
    3 H                    1.0000     0.00000000     0.93703300    -1.11368600
    4 H                    1.0000     0.00000000    -0.93703300    -1.11368600

      Atomic Mass 
      ----------- 

      O                 15.994910
      C                 12.000000
      H                  1.007825


 Effective nuclear repulsion energy (a.u.)      31.3518897839

            Nuclear Dipole moment (a.u.) 
            ----------------------------
        X                 Y               Z
 ---------------- ---------------- ----------------
     0.0000000000     0.0000000000    -0.0000037795



                                Z-matrix (autoz)
                                -------- 

 Units are Angstrom for bonds and degrees for angles

      Type          Name      I     J     K     L     M      Value
      ----------- --------  ----- ----- ----- ----- ----- ----------
    1 Stretch                  1     2                       1.20216
    2 Stretch                  2     3                       1.10509
    3 Stretch                  2     4                       1.10509
    4 Bend                     1     2     3               122.01362
    5 Bend                     1     2     4               122.01362
    6 Bend                     3     2     4               115.97276
    7 Torsion                  1     2     3     4         180.00000
    8 Torsion                  1     2     4     3         180.00000
    9 Torsion                  3     2     1     4         180.00000
   10 Torsion                  1     4     2     3         180.00000
   11 Torsion                  3     1     2     4         180.00000
   12 Torsion                  1     3     2     4         180.00000


            XYZ format geometry
            -------------------
     4
 geometry
 O                     0.00000000     0.00000000     0.67431100
 C                     0.00000000     0.00000000    -0.52785300
 H                     0.00000000     0.93703300    -1.11368600
 H                     0.00000000    -0.93703300    -1.11368600

 ==============================================================================
                                internuclear distances
 ------------------------------------------------------------------------------
       center one      |      center two      | atomic units |  angstroms
 ------------------------------------------------------------------------------
    2 C                |   1 O                |     2.27176  |     1.20216
    3 H                |   2 C                |     2.08832  |     1.10509
    4 H                |   2 C                |     2.08832  |     1.10509
 ------------------------------------------------------------------------------
                         number of included internuclear distances:          3
 ==============================================================================



 ==============================================================================
                                 internuclear angles
 ------------------------------------------------------------------------------
        center 1       |       center 2       |       center 3       |  degrees
 ------------------------------------------------------------------------------
    1 O                |   2 C                |   3 H                |   122.01
    1 O                |   2 C                |   4 H                |   122.01
    3 H                |   2 C                |   4 H                |   115.97
 ------------------------------------------------------------------------------
                            number of included internuclear angles:          3
 ==============================================================================





 Summary of "ao basis" -> "" (cartesian)
 ------------------------------------------------------------------------------
       Tag                 Description            Shells   Functions and Types
 ---------------- ------------------------------  ------  ---------------------
 *                          6-311+G*                  on all atoms 


  xc_inp: hfexch multiplicative factor not found.
 tddft_input: filename not found; default name will be used

                                 NWChem DFT Module
                                 -----------------


                      Basis "ao basis" -> "ao basis" (cartesian)
                      -----
  O (Oxygen)
  ----------
            Exponent  Coefficients 
       -------------- ---------------------------------------------------------
  1 S  8.58850000E+03  0.001895
  1 S  1.29723000E+03  0.014386
  1 S  2.99296000E+02  0.070732
  1 S  8.73771000E+01  0.240001
  1 S  2.56789000E+01  0.594797
  1 S  3.74004000E+00  0.280802

  2 S  4.21175000E+01  0.113889
  2 S  9.62837000E+00  0.920811
  2 S  2.85332000E+00 -0.003274

  3 P  4.21175000E+01  0.036511
  3 P  9.62837000E+00  0.237153
  3 P  2.85332000E+00  0.819702

  4 S  9.05661000E-01  1.000000

  5 P  9.05661000E-01  1.000000

  6 S  2.55611000E-01  1.000000

  7 P  2.55611000E-01  1.000000

  8 S  8.45000000E-02  1.000000

  9 P  8.45000000E-02  1.000000

 10 D  1.29200000E+00  1.000000

  C (Carbon)
  ----------
            Exponent  Coefficients 
       -------------- ---------------------------------------------------------
  1 S  4.56324000E+03  0.001967
  1 S  6.82024000E+02  0.015231
  1 S  1.54973000E+02  0.076127
  1 S  4.44553000E+01  0.260801
  1 S  1.30290000E+01  0.616462
  1 S  1.82773000E+00  0.221006

  2 S  2.09642000E+01  0.114660
  2 S  4.80331000E+00  0.919999
  2 S  1.45933000E+00 -0.003031

  3 P  2.09642000E+01  0.040249
  3 P  4.80331000E+00  0.237594
  3 P  1.45933000E+00  0.815854

  4 S  4.83456000E-01  1.000000

  5 P  4.83456000E-01  1.000000

  6 S  1.45585000E-01  1.000000

  7 P  1.45585000E-01  1.000000

  8 S  4.38000000E-02  1.000000

  9 P  4.38000000E-02  1.000000

 10 D  6.26000000E-01  1.000000

  H (Hydrogen)
  ------------
            Exponent  Coefficients 
       -------------- ---------------------------------------------------------
  1 S  3.38650000E+01  0.025494
  1 S  5.09479000E+00  0.190373
  1 S  1.15879000E+00  0.852161

  2 S  3.25840000E-01  1.000000

  3 S  1.02741000E-01  1.000000



 Summary of "ao basis" -> "ao basis" (cartesian)
 ------------------------------------------------------------------------------
       Tag                 Description            Shells   Functions and Types
 ---------------- ------------------------------  ------  ---------------------
 O                          6-311+G*                10       23   5s4p1d
 C                          6-311+G*                10       23   5s4p1d
 H                          6-311+G*                 3        3   3s




 Summary of "ao basis" -> "ao basis" (cartesian)
 ------------------------------------------------------------------------------
       Tag                 Description            Shells   Functions and Types
 ---------------- ------------------------------  ------  ---------------------
 O                          6-311+G*                10       23   5s4p1d
 C                          6-311+G*                10       23   5s4p1d
 H                          6-311+G*                 3        3   3s



 solvent parameters
 solvname_short: h2o     
 solvname_long:  water                              
 dielec:       78.4000
 dielecinf:     1.8000
 aqueous SMD model solvent descriptors
 dielec:       78.4000
 sola:          0.8200

          ---------------
          -cosmo- solvent
          ---------------
 Cosmo: York-Karplus, doi: 10.1021/jp992097l
 dielectric constant -eps-     =  78.40
 screen = (eps-1)/(eps    )    =   0.98724
 surface charge correction     = lagrangian

 solvent accessible surface
 --------------------------

 ---------- ATOMIC COORDINATES (A.U.) ------------ VDWR(ANG.) --
     1    0.00000000    0.00000000    1.27426302     1.520
     2    0.00000000    0.00000000   -0.99749753     1.850
     3    0.00000000    1.77073561   -2.10456138     1.200
     4    0.00000000   -1.77073561   -2.10456138     1.200
 number of segments per atom =        128
 number of   points per atom =        128
 atom (   nspa,  nppa )
 ----------------------
    1 (     80,     0 )       0
    2 (     84,     0 )       0
    3 (     56,     0 )       0
    4 (     56,     0 )       0
 number of -cosmo- surface points =      276
 molecular surface =     53.589 angstrom**2
 molecular volume  =     28.564 angstrom**3
 -lineq- algorithm             =   0
 -bem- low  level              =   3
 -bem- from -octahedral-
 gaussian surface charge width =   4.50000
 degree of switching           =   1.00000
 switching function tolerance  =   0.00010
 atomic radii = 
 --------------
    1  8.000  1.520
    2  6.000  1.850
    3  1.000  1.200
    4  1.000  1.200
 ...... end of -cosmo- initialization ......


 G(SMD-CDS) energy (kcal/mol)  =     4.106
 SMD-CDS SASA (angstrom**2)    =    74.096

  Caching 1-el integrals 

            General Information
            -------------------
          SCF calculation type: DFT
          Wavefunction type:  closed shell.
          No. of atoms     :     4
          No. of electrons :    16
           Alpha electrons :     8
            Beta electrons :     8
          Charge           :     0
          Spin multiplicity:     1
          Use of symmetry is: off; symmetry adaption is: off
          Maximum number of iterations:  50
          AO basis - number of functions:    52
                     number of shells:    26
          Convergence on energy requested:  1.00D-06
          Convergence on density requested:  1.00D-05
          Convergence on gradient requested:  5.00D-04

              XC Information
              --------------
                     Hartree-Fock (Exact) Exchange  1.000          

          Convergence Information
          -----------------------
          Convergence aids based upon iterative change in 
          total energy or number of iterations. 
          Levelshifting, if invoked, occurs when the 
          HOMO/LUMO gap drops below (HL_TOL):  1.00D-02
          DIIS, if invoked, will attempt to extrapolate 
          using up to (NFOCK): 10 stored Fock matrices.

                    Damping( 0%)  Levelshifting(0.5)       DIIS
                  --------------- ------------------- ---------------
          dE  on:    start            ASAP                start   
          dE off:    2 iters         50 iters            50 iters 


      Screening Tolerance Information
      -------------------------------
          Density screening/tol_rho:  1.00D-10
          AO Gaussian exp screening on grid/accAOfunc:  14
          CD Gaussian exp screening on grid/accCDfunc:  20
          XC Gaussian exp screening on grid/accXCfunc:  20
          Schwarz screening/accCoul:  1.00D-08


      Superposition of Atomic Density Guess
      -------------------------------------

 Sum of atomic energies:        -113.44652199

      Non-variational initial energy
      ------------------------------

 Total energy =    -114.126279
 1-e energy   =    -216.079326
 2-e energy   =      70.601157
 HOMO         =      -0.334438
 LUMO         =      -0.048206

   Time after variat. SCF:      0.2
   Time prior to 1st pass:      0.2

 Integral file          = ./H2COWat_VEMExc_CISHF.aoints.0
 Record size in doubles =  65536        No. of integs per rec  =  43688
 Max. records in memory =     10        Max. records in file   = 120028
 No. of bits per label  =      8        No. of bits per value  =     64


 #quartets = 6.120D+04 #integrals = 3.800D+05 #direct =  0.0% #cached =100.0%


File balance: exchanges=     0  moved=     0  time=   0.0


           Memory utilization after 1st SCF pass: 
           Heap Space remaining (MW):       12.45            12448396
          Stack Space remaining (MW):       13.11            13106780

   convergence    iter        energy       DeltaE   RMS-Dens  Diis-err    time
 ---------------- ----- ----------------- --------- --------- ---------  ------
     COSMO gas phase
 d= 0,ls=0.0,diis     1   -113.8265843529 -1.45D+02  1.22D-02  6.19D-01     0.3
 d= 0,ls=0.0,diis     2   -113.8592392087 -3.27D-02  5.82D-03  4.62D-01     0.3
 d= 0,ls=0.0,diis     3   -113.8979153950 -3.87D-02  9.71D-04  3.26D-03     0.4
 d= 0,ls=0.0,diis     4   -113.8986721012 -7.57D-04  4.08D-04  4.63D-04     0.4
 d= 0,ls=0.0,diis     5   -113.8988035242 -1.31D-04  2.81D-04  9.02D-05     0.4
  Resetting Diis
 d= 0,ls=0.0,diis     6   -113.8988415970 -3.81D-05  9.18D-05  1.19D-05     0.4
 d= 0,ls=0.0,diis     7   -113.8988447692 -3.17D-06  1.05D-05  2.50D-07     0.5
 d= 0,ls=0.0,diis     8   -113.8988448208 -5.15D-08  3.42D-06  5.23D-08     0.5

           Memory utilization after 1st SCF pass: 
           Heap Space remaining (MW):       12.45            12447268
          Stack Space remaining (MW):       13.11            13106780

   convergence    iter        energy       DeltaE   RMS-Dens  Diis-err    time
 ---------------- ----- ----------------- --------- --------- ---------  ------
     COSMO solvation phase
 d= 0,ls=0.0,diis     1   -113.9026946031 -3.85D-03  3.22D-03  9.21D-03     0.6
 d= 0,ls=0.0,diis     2   -113.9053753727 -2.68D-03  7.40D-04  4.16D-03     0.6
 d= 0,ls=0.0,diis     3   -113.9059242797 -5.49D-04  7.80D-04  5.82D-04     0.7
 d= 0,ls=0.0,diis     4   -113.9061917628 -2.67D-04  2.53D-04  7.35D-05     0.8
 d= 0,ls=0.0,diis     5   -113.9062311312 -3.94D-05  9.60D-05  1.05D-05     0.9
 d= 0,ls=0.0,diis     6   -113.9062353468 -4.22D-06  2.67D-05  1.22D-06     0.9
 d= 0,ls=0.0,diis     7   -113.9062356897 -3.43D-07  5.48D-06  5.10D-08     1.0


         Total DFT energy =     -113.906235689650
      One electron energy =     -217.792526637701
           Coulomb energy =       86.405976549288
    Exchange-Corr. energy =      -14.094975748205
 Nuclear repulsion energy =       31.351889783871

             COSMO energy =        0.223400363096

 Numeric. integr. density =        0.000000000000

     Total iterative time =      0.8s


                                COSMO-SMD solvation results
                                ---------------------------
 Reference for the SMD model:
 Marenich, A. V.; Cramer, C. J.; Truhlar, D. G. J. Phys. Chem. B 2009, 113, 6378

             internal energy in gas <Psi(g)|H|Psi(g)> =      -113.898844820784
         internal energy in solvent <Psi(s)|H|Psi(s)> =      -113.894141474200
                               delta internal energy  =         0.004703346584 (    2.95 kcal/mol)
   total free energy in solvent <Psi(s)|H+V/2|Psi(s)> =      -113.912779499014
 polarization energy contribution <Psi(s)|V/2|Psi(s)> =        -0.018638024814 (  -11.70 kcal/mol)
    total free energy in solvent including G(SMD-CDS) =      -113.906235689650
                       G(SMD-CDS) energy contribution =         0.006543809363 (    4.11 kcal/mol)
     1 M fixed-concentration free energy of solvation =        -0.007390868866 (   -4.64 kcal/mol)

                       DFT Final Molecular Orbital Analysis
                       ------------------------------------

 Vector    1  Occ=2.000000D+00  E=-2.058329D+01
              MO Center=  1.1D-18, -1.4D-17,  6.7D-01, r^2= 1.5D-02
   Bfn.  Coefficient  Atom+Function         Bfn.  Coefficient  Atom+Function  
  ----- ------------  ---------------      ----- ------------  ---------------
     1      0.551494  1 O  s                  2      0.471461  1 O  s          

 Vector    2  Occ=2.000000D+00  E=-1.134833D+01
              MO Center= -2.9D-17, -8.4D-17, -5.3D-01, r^2= 2.7D-02
   Bfn.  Coefficient  Atom+Function         Bfn.  Coefficient  Atom+Function  
  ----- ------------  ---------------      ----- ------------  ---------------
    24      0.563540  2 C  s                 25      0.466229  2 C  s          

 Vector    3  Occ=2.000000D+00  E=-1.422673D+00
              MO Center= -5.3D-16,  1.5D-15,  3.5D-01, r^2= 4.9D-01
   Bfn.  Coefficient  Atom+Function         Bfn.  Coefficient  Atom+Function  
  ----- ------------  ---------------      ----- ------------  ---------------
     6      0.500180  1 O  s                 10      0.355219  1 O  s          
    29      0.245254  2 C  s                  2     -0.177270  1 O  s          
    32      0.111042  2 C  pz                 1     -0.106546  1 O  s          
     9     -0.099545  1 O  pz                25     -0.095766  2 C  s          
    28      0.085105  2 C  pz                33      0.080387  2 C  s          

 Vector    4  Occ=2.000000D+00  E=-8.659213D-01
              MO Center= -2.1D-15, -1.2D-14, -5.0D-01, r^2= 1.4D+00
   Bfn.  Coefficient  Atom+Function         Bfn.  Coefficient  Atom+Function  
  ----- ------------  ---------------      ----- ------------  ---------------
    29      0.418894  2 C  s                 33      0.312834  2 C  s          
    10     -0.279515  1 O  s                  6     -0.238325  1 O  s          
    25     -0.148295  2 C  s                  9     -0.128480  1 O  pz         
    32     -0.124013  2 C  pz                48      0.112706  3 H  s          
    51      0.112706  4 H  s                 47      0.103218  3 H  s          

 Vector    5  Occ=2.000000D+00  E=-6.965863D-01
              MO Center=  5.5D-17,  3.1D-14, -2.4D-01, r^2= 1.3D+00
   Bfn.  Coefficient  Atom+Function         Bfn.  Coefficient  Atom+Function  
  ----- ------------  ---------------      ----- ------------  ---------------
    31      0.304038  2 C  py                 8      0.256818  1 O  py         
    12      0.197621  1 O  py                27      0.174087  2 C  py         
     4      0.163662  1 O  py                35      0.145700  2 C  py         
    48      0.130038  3 H  s                 51     -0.130038  4 H  s          
    47      0.102971  3 H  s                 50     -0.102971  4 H  s          

 Vector    6  Occ=2.000000D+00  E=-6.664572D-01
              MO Center=  9.1D-16, -2.3D-14,  3.1D-01, r^2= 1.3D+00
   Bfn.  Coefficient  Atom+Function         Bfn.  Coefficient  Atom+Function  
  ----- ------------  ---------------      ----- ------------  ---------------
     9      0.339800  1 O  pz                10      0.288212  1 O  s          
    32     -0.282677  2 C  pz                 5      0.227265  1 O  pz         
    13      0.224446  1 O  pz                28     -0.172296  2 C  pz         
     6      0.164557  1 O  s                 36     -0.115075  2 C  pz         
    48      0.080475  3 H  s                 51      0.080475  4 H  s          

 Vector    7  Occ=2.000000D+00  E=-5.546508D-01
              MO Center=  5.1D-16,  9.8D-17,  3.4D-01, r^2= 9.3D-01
   Bfn.  Coefficient  Atom+Function         Bfn.  Coefficient  Atom+Function  
  ----- ------------  ---------------      ----- ------------  ---------------
     7      0.361684  1 O  px                11      0.327938  1 O  px         
     3      0.229481  1 O  px                30      0.228804  2 C  px         
    34      0.139867  2 C  px                26      0.130328  2 C  px         
    43      0.088757  2 C  dxz               20     -0.047099  1 O  dxz        
    15      0.037221  1 O  px         

 Vector    8  Occ=2.000000D+00  E=-4.472923D-01
              MO Center= -5.0D-17,  2.0D-15,  8.2D-03, r^2= 1.6D+00
   Bfn.  Coefficient  Atom+Function         Bfn.  Coefficient  Atom+Function  
  ----- ------------  ---------------      ----- ------------  ---------------
    12      0.378987  1 O  py                 8      0.366503  1 O  py         
     4      0.239580  1 O  py                48     -0.179313  3 H  s          
    51      0.179313  4 H  s                 31     -0.175826  2 C  py         
    35     -0.136449  2 C  py                45      0.134559  2 C  dyz        
    47     -0.106856  3 H  s                 50      0.106856  4 H  s          

 Vector    9  Occ=0.000000D+00  E= 7.942254D-02
              MO Center=  1.2D-13, -2.7D-13, -2.5D-01, r^2= 1.0D+01
   Bfn.  Coefficient  Atom+Function         Bfn.  Coefficient  Atom+Function  
  ----- ------------  ---------------      ----- ------------  ---------------
    37      2.919629  2 C  s                 14     -2.152510  1 O  s          
    17      0.575342  1 O  pz                33      0.564445  2 C  s          
    49     -0.473945  3 H  s                 52     -0.473945  4 H  s          
    36      0.399018  2 C  pz                40      0.345603  2 C  pz         
    29     -0.141108  2 C  s                 48      0.082170  3 H  s          

 Vector   10  Occ=0.000000D+00  E= 8.280688D-02
              MO Center= -1.0D-13,  7.8D-18, -8.3D-01, r^2= 6.6D+00
   Bfn.  Coefficient  Atom+Function         Bfn.  Coefficient  Atom+Function  
  ----- ------------  ---------------      ----- ------------  ---------------
    38      1.079253  2 C  px                15     -0.520830  1 O  px         
    34      0.220086  2 C  px                 7     -0.179373  1 O  px         
    30      0.174574  2 C  px                11     -0.170109  1 O  px         
     3     -0.109073  1 O  px                26      0.089475  2 C  px         
    43     -0.059148  2 C  dxz        

 Vector   11  Occ=0.000000D+00  E= 9.830171D-02
              MO Center=  9.4D-15, -1.4D-13, -1.2D+00, r^2= 1.1D+01
   Bfn.  Coefficient  Atom+Function         Bfn.  Coefficient  Atom+Function  
  ----- ------------  ---------------      ----- ------------  ---------------
    40     -1.721635  2 C  pz                14      1.598386  1 O  s          
    49     -0.483528  3 H  s                 52     -0.483528  4 H  s          
    33     -0.479625  2 C  s                 37     -0.246000  2 C  s          
    17     -0.202441  1 O  pz                48      0.100282  3 H  s          
    51      0.100282  4 H  s                  6      0.090292  1 O  s          

 Vector   12  Occ=0.000000D+00  E= 9.912165D-02
              MO Center=  2.8D-18,  3.9D-13, -5.9D-01, r^2= 1.2D+01
   Bfn.  Coefficient  Atom+Function         Bfn.  Coefficient  Atom+Function  
  ----- ------------  ---------------      ----- ------------  ---------------
    39      1.851249  2 C  py                49     -0.864989  3 H  s          
    52      0.864989  4 H  s                 16     -0.494584  1 O  py         
    31     -0.125344  2 C  py                48      0.100919  3 H  s          
    51     -0.100919  4 H  s                 12      0.057260  1 O  py         
    27     -0.046005  2 C  py                35      0.041617  2 C  py         

 Vector   13  Occ=0.000000D+00  E= 1.575574D-01
              MO Center= -1.4D-14,  9.0D-17, -1.3D-01, r^2= 5.6D+00
   Bfn.  Coefficient  Atom+Function         Bfn.  Coefficient  Atom+Function  
  ----- ------------  ---------------      ----- ------------  ---------------
    34      0.908461  2 C  px                38     -0.807911  2 C  px         
    15     -0.270951  1 O  px                11     -0.255538  1 O  px         
    30      0.243651  2 C  px                26      0.191454  2 C  px         
     7     -0.128449  1 O  px                 3     -0.089164  1 O  px         
    43     -0.026758  2 C  dxz               20     -0.026337  1 O  dxz        

 Vector   14  Occ=0.000000D+00  E= 2.513814D-01
              MO Center=  3.1D-15,  8.9D-15,  1.2D+00, r^2= 5.9D+00
   Bfn.  Coefficient  Atom+Function         Bfn.  Coefficient  Atom+Function  
  ----- ------------  ---------------      ----- ------------  ---------------
    17      2.262332  1 O  pz                33      2.200918  2 C  s          
    14     -1.029725  1 O  s                 40     -0.600122  2 C  pz         
    13     -0.280249  1 O  pz                10     -0.269602  1 O  s          
    36      0.221963  2 C  pz                37      0.081711  2 C  s          
    48     -0.071177  3 H  s                 51     -0.071177  4 H  s          

 Vector   15  Occ=0.000000D+00  E= 2.637683D-01
              MO Center= -2.7D-15,  2.6D-13, -1.2D+00, r^2= 5.5D+00
   Bfn.  Coefficient  Atom+Function         Bfn.  Coefficient  Atom+Function  
  ----- ------------  ---------------      ----- ------------  ---------------
    49      2.614608  3 H  s                 52      2.614608  4 H  s          
    37     -1.758445  2 C  s                 33     -1.524062  2 C  s          
    36      1.059003  2 C  pz                14     -0.940366  1 O  s          
    17      0.722221  1 O  pz                40      0.629139  2 C  pz         
    29     -0.121024  2 C  s                 28      0.084052  2 C  pz         

 Vector   16  Occ=0.000000D+00  E= 2.850534D-01
              MO Center= -9.1D-18,  1.7D-14,  2.8D-01, r^2= 6.8D+00
   Bfn.  Coefficient  Atom+Function         Bfn.  Coefficient  Atom+Function  
  ----- ------------  ---------------      ----- ------------  ---------------
    16      1.629388  1 O  py                49     -1.019021  3 H  s          
    52      1.019021  4 H  s                 12     -0.582182  1 O  py         
    39     -0.351150  2 C  py                48      0.160526  3 H  s          
    51     -0.160526  4 H  s                 35      0.155237  2 C  py         
     4     -0.108836  1 O  py                 8     -0.096136  1 O  py         

 Vector   17  Occ=0.000000D+00  E= 3.053559D-01
              MO Center=  5.0D-14,  5.0D-18,  5.2D-01, r^2= 6.6D+00
   Bfn.  Coefficient  Atom+Function         Bfn.  Coefficient  Atom+Function  
  ----- ------------  ---------------      ----- ------------  ---------------
    15      1.937389  1 O  px                38     -1.022995  2 C  px         
    11     -0.704715  1 O  px                 3     -0.136454  1 O  px         
     7     -0.128756  1 O  px                30      0.110693  2 C  px         
    34     -0.052564  2 C  px                26      0.032874  2 C  px         

 Vector   18  Occ=0.000000D+00  E= 3.304251D-01
              MO Center=  2.6D-17, -3.7D-13, -7.3D-01, r^2= 7.6D+00
   Bfn.  Coefficient  Atom+Function         Bfn.  Coefficient  Atom+Function  
  ----- ------------  ---------------      ----- ------------  ---------------
    49      2.876702  3 H  s                 52     -2.876702  4 H  s          
    39     -1.952687  2 C  py                35     -1.763579  2 C  py         
    16      1.494574  1 O  py                27     -0.159967  2 C  py         
    31     -0.158109  2 C  py                12     -0.033228  1 O  py         
    22      0.032410  1 O  dyz               47      0.025702  3 H  s          

 Vector   19  Occ=0.000000D+00  E= 3.616454D-01
              MO Center= -5.0D-14,  1.8D-13,  7.2D-01, r^2= 6.3D+00
   Bfn.  Coefficient  Atom+Function         Bfn.  Coefficient  Atom+Function  
  ----- ------------  ---------------      ----- ------------  ---------------
    14      6.353356  1 O  s                 37     -2.918595  2 C  s          
    33     -2.117487  2 C  s                 10     -1.490382  1 O  s          
    40     -1.459669  2 C  pz                17     -1.122573  1 O  pz         
    36     -0.391678  2 C  pz                13     -0.267137  1 O  pz         
     6     -0.137002  1 O  s                 32      0.105947  2 C  pz         

 Vector   20  Occ=0.000000D+00  E= 4.824335D-01
              MO Center= -2.2D-15, -5.7D-14, -1.2D+00, r^2= 3.6D+00
   Bfn.  Coefficient  Atom+Function         Bfn.  Coefficient  Atom+Function  
  ----- ------------  ---------------      ----- ------------  ---------------
    14      4.187004  1 O  s                 33     -3.478305  2 C  s          
    36     -3.383087  2 C  pz                10      1.702738  1 O  s          
    17     -1.507166  1 O  pz                37     -1.446698  2 C  s          
    13     -1.049750  1 O  pz                48     -0.469083  3 H  s          
    51     -0.469083  4 H  s                 40      0.222394  2 C  pz         

 Vector   21  Occ=0.000000D+00  E= 6.349955D-01
              MO Center= -2.3D-14, -2.3D-12, -7.5D-01, r^2= 3.8D+00
   Bfn.  Coefficient  Atom+Function         Bfn.  Coefficient  Atom+Function  
  ----- ------------  ---------------      ----- ------------  ---------------
    33     -3.755322  2 C  s                 14      3.534540  1 O  s          
    49     -1.831927  3 H  s                 52     -1.831927  4 H  s          
    48      1.365511  3 H  s                 51      1.365511  4 H  s          
    36     -1.211767  2 C  pz                17     -1.192718  1 O  pz         
    13     -0.864570  1 O  pz                10      0.850603  1 O  s          

 Vector   22  Occ=0.000000D+00  E= 6.368957D-01
              MO Center= -1.9D-17,  2.3D-12, -3.3D-01, r^2= 3.4D+00
   Bfn.  Coefficient  Atom+Function         Bfn.  Coefficient  Atom+Function  
  ----- ------------  ---------------      ----- ------------  ---------------
    35      2.384123  2 C  py                48     -1.454104  3 H  s          
    51      1.454104  4 H  s                 12     -0.535564  1 O  py         
    39     -0.474879  2 C  py                49      0.428449  3 H  s          
    52     -0.428449  4 H  s                 16     -0.309009  1 O  py         
     8     -0.105546  1 O  py                 4     -0.086624  1 O  py         

 Vector   23  Occ=0.000000D+00  E= 7.083956D-01
              MO Center=  2.4D-15, -8.9D-18, -5.4D-01, r^2= 3.1D+00
   Bfn.  Coefficient  Atom+Function         Bfn.  Coefficient  Atom+Function  
  ----- ------------  ---------------      ----- ------------  ---------------
    34      1.658612  2 C  px                30     -1.012686  2 C  px         
    38     -0.513564  2 C  px                26     -0.236083  2 C  px         
    15     -0.233222  1 O  px                11     -0.096654  1 O  px         
     7      0.065085  1 O  px                43     -0.045627  2 C  dxz        
    20      0.037863  1 O  dxz                3      0.030239  1 O  px         

 Vector   24  Occ=0.000000D+00  E= 8.245183D-01
              MO Center=  1.8D-15,  2.1D-12, -8.7D-01, r^2= 2.7D+00
   Bfn.  Coefficient  Atom+Function         Bfn.  Coefficient  Atom+Function  
  ----- ------------  ---------------      ----- ------------  ---------------
    33      4.939553  2 C  s                 14     -1.782957  1 O  s          
    49     -1.577668  3 H  s                 52     -1.577668  4 H  s          
    37      1.141705  2 C  s                 29     -1.115330  2 C  s          
    32      0.932052  2 C  pz                13      0.818061  1 O  pz         
    10     -0.740643  1 O  s                 17      0.506735  1 O  pz         

 Vector   25  Occ=0.000000D+00  E= 8.329376D-01
              MO Center=  2.2D-17, -2.0D-12, -7.2D-01, r^2= 3.3D+00
   Bfn.  Coefficient  Atom+Function         Bfn.  Coefficient  Atom+Function  
  ----- ------------  ---------------      ----- ------------  ---------------
    35      2.851637  2 C  py                49     -2.568853  3 H  s          
    52      2.568853  4 H  s                 31     -1.143111  2 C  py         
    39      0.967076  2 C  py                16     -0.893259  1 O  py         
    48      0.370209  3 H  s                 51     -0.370209  4 H  s          
    27     -0.253920  2 C  py                12     -0.204375  1 O  py         

 Vector   26  Occ=0.000000D+00  E= 9.675754D-01
              MO Center=  5.1D-15, -1.8D-15,  4.0D-01, r^2= 2.4D+00
   Bfn.  Coefficient  Atom+Function         Bfn.  Coefficient  Atom+Function  
  ----- ------------  ---------------      ----- ------------  ---------------
    33      4.390500  2 C  s                 14     -3.093610  1 O  s          
    17      1.841488  1 O  pz                29     -1.717215  2 C  s          
    36      1.530154  2 C  pz                13     -0.882564  1 O  pz         
    32     -0.842296  2 C  pz                37      0.664370  2 C  s          
    44     -0.316605  2 C  dyy               41     -0.290141  2 C  dxx        

 Vector   27  Occ=0.000000D+00  E= 1.247691D+00
              MO Center=  9.0D-15, -1.3D-14,  5.3D-01, r^2= 2.3D+00
   Bfn.  Coefficient  Atom+Function         Bfn.  Coefficient  Atom+Function  
  ----- ------------  ---------------      ----- ------------  ---------------
    33      4.292785  2 C  s                 14     -3.026574  1 O  s          
    13      2.757088  1 O  pz                10     -2.389455  1 O  s          
    36      2.210402  2 C  pz                 9     -0.708684  1 O  pz         
    37      0.640084  2 C  s                 46      0.433829  2 C  dzz        
    17      0.336685  1 O  pz                 6      0.301105  1 O  s          

 Vector   28  Occ=0.000000D+00  E= 1.302602D+00
              MO Center= -4.8D-15, -2.2D-16,  7.1D-01, r^2= 2.2D+00
   Bfn.  Coefficient  Atom+Function         Bfn.  Coefficient  Atom+Function  
  ----- ------------  ---------------      ----- ------------  ---------------
    11      1.876736  1 O  px                15     -1.106208  1 O  px         
     7     -0.912645  1 O  px                38      0.457372  2 C  px         
     3     -0.241891  1 O  px                34     -0.193366  2 C  px         
    43     -0.155423  2 C  dxz               30     -0.138064  2 C  px         
    20      0.051920  1 O  dxz        

 Vector   29  Occ=0.000000D+00  E= 1.303108D+00
              MO Center=  4.1D-16,  1.0D-14,  7.3D-01, r^2= 2.3D+00
   Bfn.  Coefficient  Atom+Function         Bfn.  Coefficient  Atom+Function  
  ----- ------------  ---------------      ----- ------------  ---------------
    12      1.975563  1 O  py                16     -1.119842  1 O  py         
     8     -0.865072  1 O  py                39      0.528351  2 C  py         
    45     -0.358444  2 C  dyz               35     -0.345025  2 C  py         
     4     -0.221478  1 O  py                31     -0.191820  2 C  py         
    48      0.156335  3 H  s                 51     -0.156335  4 H  s          

 Vector   30  Occ=0.000000D+00  E= 1.470547D+00
              MO Center= -1.2D-15,  3.1D-17, -5.1D-01, r^2= 7.9D-01
   Bfn.  Coefficient  Atom+Function         Bfn.  Coefficient  Atom+Function  
  ----- ------------  ---------------      ----- ------------  ---------------
    42      1.716021  2 C  dxy               19      0.126374  1 O  dxy        

 Vector   31  Occ=0.000000D+00  E= 1.575845D+00
              MO Center= -7.0D-15, -2.3D-14,  6.9D-01, r^2= 2.3D+00
   Bfn.  Coefficient  Atom+Function         Bfn.  Coefficient  Atom+Function  
  ----- ------------  ---------------      ----- ------------  ---------------
    10      4.514969  1 O  s                 14     -2.883519  1 O  s          
     6     -1.572469  1 O  s                 37      1.242465  2 C  s          
    40      0.741595  2 C  pz                36     -0.737195  2 C  pz         
    33     -0.558994  2 C  s                 32     -0.467633  2 C  pz         
    13     -0.447474  1 O  pz                29     -0.379276  2 C  s          

 Vector   32  Occ=0.000000D+00  E= 1.628239D+00
              MO Center=  6.6D-16,  7.5D-17, -3.9D-01, r^2= 1.0D+00
   Bfn.  Coefficient  Atom+Function         Bfn.  Coefficient  Atom+Function  
  ----- ------------  ---------------      ----- ------------  ---------------
    43      1.777905  2 C  dxz               11     -0.409601  1 O  px         
    34      0.287685  2 C  px                20     -0.224786  1 O  dxz        
     7     -0.138974  1 O  px                15      0.114109  1 O  px         
    38     -0.094790  2 C  px                 3     -0.071790  1 O  px         
    30     -0.062152  2 C  px         

 Vector   33  Occ=0.000000D+00  E= 1.746854D+00
              MO Center=  3.0D-15, -2.8D-14, -6.3D-01, r^2= 1.4D+00
   Bfn.  Coefficient  Atom+Function         Bfn.  Coefficient  Atom+Function  
  ----- ------------  ---------------      ----- ------------  ---------------
    33      2.025746  2 C  s                 48     -1.249685  3 H  s          
    51     -1.249685  4 H  s                 41     -0.951747  2 C  dxx        
    44      0.953649  2 C  dyy               10     -0.911046  1 O  s          
    14     -0.549262  1 O  s                 49      0.533916  3 H  s          
    52      0.533916  4 H  s                 13      0.490999  1 O  pz         

 Vector   34  Occ=0.000000D+00  E= 1.798233D+00
              MO Center= -5.6D-17,  3.1D-14, -5.4D-01, r^2= 1.7D+00
   Bfn.  Coefficient  Atom+Function         Bfn.  Coefficient  Atom+Function  
  ----- ------------  ---------------      ----- ------------  ---------------
    45      1.888711  2 C  dyz               48      1.473168  3 H  s          
    51     -1.473168  4 H  s                 35     -0.997489  2 C  py         
    49     -0.641402  3 H  s                 52      0.641402  4 H  s          
    39      0.317441  2 C  py                 8     -0.262179  1 O  py         
    47     -0.251135  3 H  s                 50      0.251135  4 H  s          

 Vector   35  Occ=0.000000D+00  E= 2.220018D+00
              MO Center=  4.4D-16,  3.2D-15, -5.5D-01, r^2= 1.2D+00
   Bfn.  Coefficient  Atom+Function         Bfn.  Coefficient  Atom+Function  
  ----- ------------  ---------------      ----- ------------  ---------------
    33      2.442230  2 C  s                 14     -1.684223  1 O  s          
    36      1.468284  2 C  pz                46      1.175852  2 C  dzz        
    10     -0.907435  1 O  s                 41     -0.786113  2 C  dxx        
    17      0.740261  1 O  pz                44     -0.691732  2 C  dyy        
     9      0.677440  1 O  pz                37      0.511814  2 C  s          

 Vector   36  Occ=0.000000D+00  E= 2.648292D+00
              MO Center=  4.7D-16,  6.3D-16, -1.0D+00, r^2= 1.9D+00
   Bfn.  Coefficient  Atom+Function         Bfn.  Coefficient  Atom+Function  
  ----- ------------  ---------------      ----- ------------  ---------------
    48      1.543937  3 H  s                 51      1.543937  4 H  s          
    49     -1.419841  3 H  s                 52     -1.419841  4 H  s          
    47     -0.978562  3 H  s                 50     -0.978562  4 H  s          
    37      0.731390  2 C  s                 32      0.725427  2 C  pz         
    28     -0.486958  2 C  pz                14      0.476047  1 O  s          

 Vector   37  Occ=0.000000D+00  E= 2.712572D+00
              MO Center= -7.3D-18, -2.1D-15, -7.6D-01, r^2= 1.8D+00
   Bfn.  Coefficient  Atom+Function         Bfn.  Coefficient  Atom+Function  
  ----- ------------  ---------------      ----- ------------  ---------------
    49     -1.360369  3 H  s                 52      1.360369  4 H  s          
    48      1.271589  3 H  s                 51     -1.271589  4 H  s          
    31     -0.917802  2 C  py                47     -0.854548  3 H  s          
    50      0.854548  4 H  s                 27      0.714728  2 C  py         
    35      0.595281  2 C  py                39      0.549501  2 C  py         

 Vector   38  Occ=0.000000D+00  E= 2.991639D+00
              MO Center=  1.2D-14,  1.9D-17, -4.6D-01, r^2= 9.4D-01
   Bfn.  Coefficient  Atom+Function         Bfn.  Coefficient  Atom+Function  
  ----- ------------  ---------------      ----- ------------  ---------------
    30      1.427383  2 C  px                26     -1.279313  2 C  px         
    34     -0.832647  2 C  px                20     -0.424944  1 O  dxz        
    43     -0.214889  2 C  dxz               38      0.201006  2 C  px         
    15      0.103975  1 O  px                11      0.057208  1 O  px         
     7     -0.045548  1 O  px         

 Vector   39  Occ=0.000000D+00  E= 3.204728D+00
              MO Center= -3.6D-15, -7.5D-16,  4.3D-01, r^2= 7.8D-01
   Bfn.  Coefficient  Atom+Function         Bfn.  Coefficient  Atom+Function  
  ----- ------------  ---------------      ----- ------------  ---------------
    33      1.413824  2 C  s                 21     -0.815394  1 O  dyy        
    18      0.781136  1 O  dxx               41     -0.687576  2 C  dxx        
    14     -0.571148  1 O  s                 29      0.551300  2 C  s          
    46     -0.401770  2 C  dzz               44     -0.381432  2 C  dyy        
    32      0.367798  2 C  pz                28     -0.300892  2 C  pz         

 Vector   40  Occ=0.000000D+00  E= 3.205429D+00
              MO Center=  1.0D-15,  7.2D-17,  6.5D-01, r^2= 4.2D-01
   Bfn.  Coefficient  Atom+Function         Bfn.  Coefficient  Atom+Function  
  ----- ------------  ---------------      ----- ------------  ---------------
    19      1.734609  1 O  dxy               42     -0.283038  2 C  dxy        

 Vector   41  Occ=0.000000D+00  E= 3.384091D+00
              MO Center= -5.5D-15, -3.2D-15, -5.2D-01, r^2= 1.2D+00
   Bfn.  Coefficient  Atom+Function         Bfn.  Coefficient  Atom+Function  
  ----- ------------  ---------------      ----- ------------  ---------------
    33      3.156150  2 C  s                 44     -1.588742  2 C  dyy        
    14     -1.562636  1 O  s                 29      1.509451  2 C  s          
    46     -1.470858  2 C  dzz               41     -1.234183  2 C  dxx        
    17      0.675951  1 O  pz                25     -0.544828  2 C  s          
    47      0.498294  3 H  s                 50      0.498294  4 H  s          

 Vector   42  Occ=0.000000D+00  E= 3.488366D+00
              MO Center= -1.5D-16,  9.0D-15, -6.9D-01, r^2= 9.6D-01
   Bfn.  Coefficient  Atom+Function         Bfn.  Coefficient  Atom+Function  
  ----- ------------  ---------------      ----- ------------  ---------------
    31      1.585353  2 C  py                35     -1.314238  2 C  py         
    27     -1.175022  2 C  py                47     -0.745633  3 H  s          
    50      0.745633  4 H  s                 48      0.577519  3 H  s          
    51     -0.577519  4 H  s                 45     -0.560175  2 C  dyz        
    49      0.339510  3 H  s                 52     -0.339510  4 H  s          

 Vector   43  Occ=0.000000D+00  E= 3.662178D+00
              MO Center=  1.1D-14,  2.8D-16, -9.9D-02, r^2= 8.0D-01
   Bfn.  Coefficient  Atom+Function         Bfn.  Coefficient  Atom+Function  
  ----- ------------  ---------------      ----- ------------  ---------------
    32      1.933871  2 C  pz                14      1.334494  1 O  s          
    46      1.336334  2 C  dzz               33     -1.327733  2 C  s          
    28     -1.186130  2 C  pz                36     -0.821257  2 C  pz         
     9      0.706828  1 O  pz                29     -0.684214  2 C  s          
    41      0.580267  2 C  dxx               17     -0.529466  1 O  pz         

 Vector   44  Occ=0.000000D+00  E= 3.717042D+00
              MO Center= -1.6D-14, -8.3D-17,  4.9D-01, r^2= 7.1D-01
   Bfn.  Coefficient  Atom+Function         Bfn.  Coefficient  Atom+Function  
  ----- ------------  ---------------      ----- ------------  ---------------
    20      1.831558  1 O  dxz               43      0.934237  2 C  dxz        
    30      0.718920  2 C  px                11     -0.409127  1 O  px         
    26     -0.406393  2 C  px                15      0.164004  1 O  px         
    34     -0.161052  2 C  px         

 Vector   45  Occ=0.000000D+00  E= 3.767030D+00
              MO Center= -1.4D-16, -3.5D-15,  4.0D-01, r^2= 9.2D-01
   Bfn.  Coefficient  Atom+Function         Bfn.  Coefficient  Atom+Function  
  ----- ------------  ---------------      ----- ------------  ---------------
    22      1.826567  1 O  dyz               45      1.179084  2 C  dyz        
    31      0.463195  2 C  py                12     -0.436872  1 O  py         
    47      0.331822  3 H  s                 50     -0.331822  4 H  s          
    49      0.319035  3 H  s                 52     -0.319035  4 H  s          
    48     -0.315355  3 H  s                 51      0.315355  4 H  s          

 Vector   46  Occ=0.000000D+00  E= 4.189461D+00
              MO Center= -8.2D-16,  4.0D-16,  5.8D-01, r^2= 9.1D-01
   Bfn.  Coefficient  Atom+Function         Bfn.  Coefficient  Atom+Function  
  ----- ------------  ---------------      ----- ------------  ---------------
    10      2.578241  1 O  s                 32     -2.011660  2 C  pz         
    13     -1.757664  1 O  pz                46     -1.341053  2 C  dzz        
    33     -1.280171  2 C  s                 23      1.222335  1 O  dzz        
    21     -0.639342  1 O  dyy               29     -0.607806  2 C  s          
    18     -0.591035  1 O  dxx               36     -0.452290  2 C  pz         

 Vector   47  Occ=0.000000D+00  E= 5.528435D+00
              MO Center=  4.4D-16,  4.9D-17,  6.6D-01, r^2= 5.5D-01
   Bfn.  Coefficient  Atom+Function         Bfn.  Coefficient  Atom+Function  
  ----- ------------  ---------------      ----- ------------  ---------------
     7      1.528577  1 O  px                 3     -1.289855  1 O  px         
    11     -0.881101  1 O  px                15      0.418235  1 O  px         
    38     -0.183662  2 C  px                43     -0.146859  2 C  dxz        
    34      0.111945  2 C  px                30     -0.060451  2 C  px         
    20     -0.052238  1 O  dxz               26      0.034033  2 C  px         

 Vector   48  Occ=0.000000D+00  E= 5.569706D+00
              MO Center=  8.0D-17, -6.7D-15,  6.5D-01, r^2= 5.6D-01
   Bfn.  Coefficient  Atom+Function         Bfn.  Coefficient  Atom+Function  
  ----- ------------  ---------------      ----- ------------  ---------------
     8      1.556598  1 O  py                 4     -1.288861  1 O  py         
    12     -0.933408  1 O  py                16      0.371351  1 O  py         
    35      0.329279  2 C  py                45     -0.285572  2 C  dyz        
    39     -0.170048  2 C  py                48     -0.132858  3 H  s          
    51      0.132858  4 H  s                 22     -0.071404  1 O  dyz        

 Vector   49  Occ=0.000000D+00  E= 6.111455D+00
              MO Center= -1.6D-15,  8.4D-16,  7.7D-01, r^2= 6.1D-01
   Bfn.  Coefficient  Atom+Function         Bfn.  Coefficient  Atom+Function  
  ----- ------------  ---------------      ----- ------------  ---------------
     9      1.916706  1 O  pz                10     -1.883499  1 O  s          
    14      1.377522  1 O  s                  5     -1.188176  1 O  pz         
    32      1.137696  2 C  pz                 6     -1.024057  1 O  s          
    46      0.894851  2 C  dzz               21      0.783644  1 O  dyy        
    18      0.768869  1 O  dxx               37     -0.514551  2 C  s          

 Vector   50  Occ=0.000000D+00  E= 6.943042D+00
              MO Center=  1.5D-15,  7.1D-15,  4.1D-01, r^2= 5.0D-01
   Bfn.  Coefficient  Atom+Function         Bfn.  Coefficient  Atom+Function  
  ----- ------------  ---------------      ----- ------------  ---------------
     6      2.234325  1 O  s                 23     -1.888903  1 O  dzz        
    18     -1.368122  1 O  dxx               21     -1.355457  1 O  dyy        
     9      1.183659  1 O  pz                32      0.995654  2 C  pz         
    10      0.935320  1 O  s                 46      0.851750  2 C  dzz        
     2     -0.643934  1 O  s                  5     -0.554491  1 O  pz         

 Vector   51  Occ=0.000000D+00  E= 2.755288D+01
              MO Center= -3.7D-16, -6.0D-16, -5.2D-01, r^2= 1.5D-01
   Bfn.  Coefficient  Atom+Function         Bfn.  Coefficient  Atom+Function  
  ----- ------------  ---------------      ----- ------------  ---------------
    25      2.567974  2 C  s                 24     -2.114633  2 C  s          
    33     -1.132688  2 C  s                 29     -1.073215  2 C  s          
    44      0.655590  2 C  dyy               46      0.658804  2 C  dzz        
    41      0.637774  2 C  dxx               14      0.597942  1 O  s          
    17     -0.257591  1 O  pz                37     -0.173931  2 C  s          

 Vector   52  Occ=0.000000D+00  E= 5.703282D+01
              MO Center= -2.5D-18,  1.8D-16,  6.7D-01, r^2= 6.9D-02
   Bfn.  Coefficient  Atom+Function         Bfn.  Coefficient  Atom+Function  
  ----- ------------  ---------------      ----- ------------  ---------------
     2      2.713438  1 O  s                  1     -2.323555  1 O  s          
     6     -1.080352  1 O  s                 23      0.607548  1 O  dzz        
    18      0.562210  1 O  dxx               21      0.560970  1 O  dyy        
    10     -0.461947  1 O  s                 14      0.273360  1 O  s          
    37     -0.123871  2 C  s                 32     -0.104617  2 C  pz         


 center of mass
 --------------
 x =   0.00000000 y =   0.00000000 z =   0.13894085

 moments of inertia (a.u.)
 ------------------
          52.580104018330           0.000000000000           0.000000000000
           0.000000000000          46.260024154175           0.000000000000
           0.000000000000           0.000000000000           6.320079864154

     Multipole analysis of the density
     ---------------------------------

     L   x y z        total         alpha         beta         nuclear
     -   - - -        -----         -----         ----         -------
     0   0 0 0     -0.000000     -8.000000     -8.000000     16.000000

     1   1 0 0      0.000000      0.000000      0.000000      0.000000
     1   0 1 0      0.000000      0.000000      0.000000      0.000000
     1   0 0 1     -1.580467     -0.790231     -0.790231     -0.000004

     2   2 0 0     -8.677774     -4.338887     -4.338887      0.000000
     2   1 1 0     -0.000000     -0.000000     -0.000000      0.000000
     2   1 0 1     -0.000000     -0.000000     -0.000000      0.000000
     2   0 2 0     -8.354997     -7.313003     -7.313003      6.271009
     2   0 1 1     -0.000000     -0.000000     -0.000000      0.000000
     2   0 0 2     -8.997820    -18.408078    -18.408078     27.818335


 Parallel integral file used      10 records with       0 large values

                                NWChem TDDFT Module
                                -------------------


            General Information
            -------------------
           No. of orbitals :     104
            Alpha orbitals :      52
             Beta orbitals :      52
        Alpha frozen cores :       0
         Beta frozen cores :       0
     Alpha frozen virtuals :       0
      Beta frozen virtuals :       0
         Spin multiplicity :       1
    Number of AO functions :      52
        Use of symmetry is : off
      Symmetry adaption is : off
         Schwarz screening :  0.10D-07

              XC Information
              --------------
              Hartree-Fock (Exact) Exchange   1.00          

             TDDFT Information
             -----------------
          Calculation type : CIS               
         Wavefunction type : Restricted singlets
          No. of electrons :      16
           Alpha electrons :       8
            Beta electrons :       8
              No. of roots :      10
          Max subspacesize :    6000
            Max iterations :     100
               Target root :       1
           Target symmetry : none
      Symmetry restriction : off
                 Algorithm : Incore multiple tensor contraction
        Davidson threshold :  0.10D-03

 solvent parameters
 solvname_short: h2o     
 solvname_long:  water                              
 dielec:       78.4000
 dielecinf:     1.8000
 aqueous SMD model solvent descriptors
 dielec:       78.4000
 sola:          0.8200

 solvent accessible surface
 --------------------------

 ---------- ATOMIC COORDINATES (A.U.) ------------ VDWR(ANG.) --
     1    0.00000000    0.00000000    1.27426302     1.520
     2    0.00000000    0.00000000   -0.99749753     1.850
     3    0.00000000    1.77073561   -2.10456138     1.200
     4    0.00000000   -1.77073561   -2.10456138     1.200
 number of segments per atom =        128
 number of   points per atom =        128
 atom (   nspa,  nppa )
 ----------------------
    1 (     80,     0 )       0
    2 (     84,     0 )       0
    3 (     56,     0 )       0
    4 (     56,     0 )       0
 number of -cosmo- surface points =      276
 molecular surface =     53.589 angstrom**2
 molecular volume  =     28.564 angstrom**3
 G(SMD-CDS) energy (kcal/mol)  =     4.106
 SMD-CDS SASA (angstrom**2)    =    74.096


            Memory Information
            ------------------
          Available GA space size is         104854068 doubles
          Available MA space size is          26209740 doubles
          Length of a trial vector is          352
          Estimated peak GA usage is           6563952 doubles
          Estimated peak MA usage is             51000 doubles

   10 smallest eigenvalue differences (eV) 
--------------------------------------------------------
  No. Spin  Occ  Vir  Irrep   E(Occ)    E(Vir)   E(Diff)
--------------------------------------------------------
    1    1    8    9 a        -0.447     0.079    14.333
    2    1    8   10 a        -0.447     0.083    14.425
    3    1    8   11 a        -0.447     0.098    14.846
    4    1    8   12 a        -0.447     0.099    14.869
    5    1    8   13 a        -0.447     0.158    16.459
    6    1    7    9 a        -0.555     0.079    17.254
    7    1    7   10 a        -0.555     0.083    17.346
    8    1    7   11 a        -0.555     0.098    17.768
    9    1    7   12 a        -0.555     0.099    17.790
   10    1    8   14 a        -0.447     0.251    19.012
--------------------------------------------------------

  Entering Davidson iterations
  Restricted singlet excited states

  Iter   NTrls   NConv    DeltaV     DeltaE      Time   
  ----  ------  ------  ---------  ---------  --------- 
    1     10       0     0.20E+00   0.10+100        1.8
    2     20       0     0.10E+00   0.34E-01        2.0
    3     30       0     0.37E-01   0.24E-01        2.0
    4     40       0     0.24E+00   0.45E-01        2.0
    5     50       0     0.57E-01   0.30E-01        2.1
    6     60       3     0.15E-01   0.20E-02        2.0
    7     67       5     0.35E-02   0.75E-04        1.9
    8     72       9     0.68E-03   0.29E-05        1.9
    9     73       9     0.11E-03   0.98E-07        1.6
   10     74      10     0.87E-04   0.38E-08        1.7
  ----  ------  ------  ---------  ---------  --------- 
  Convergence criterion met

  Ground state a        -113.906235689650 a.u.

  ----------------------------------------------------------------------------
  Root   1 singlet a              0.183867542 a.u.                5.0033 eV 
  ----------------------------------------------------------------------------
     Transition Moments    X  0.00000   Y  0.00000   Z  0.00000
     Transition Moments   XX  0.00000  XY  0.66751  XZ -0.00000
     Transition Moments   YY  0.00000  YZ -0.00000  ZZ -0.00000
     Dipole Oscillator Strength                    0.0000000000
     Electric Quadrupole                           0.0000000147
     Magnetic Dipole                               0.0000022977
     Total Oscillator Strength                     0.0000023124

     Occ.    5  a   ---  Virt.   10  a        0.05456
     Occ.    5  a   ---  Virt.   17  a        0.05080
     Occ.    8  a   ---  Virt.   10  a        0.74686
     Occ.    8  a   ---  Virt.   13  a        0.61044
     Occ.    8  a   ---  Virt.   17  a        0.22121
     Occ.    8  a   ---  Virt.   23  a       -0.08836
     Occ.    8  a   ---  Virt.   28  a        0.05561
  ----------------------------------------------------------------------------
  Root   2 singlet a              0.326533088 a.u.                8.8854 eV 
  ----------------------------------------------------------------------------
     Transition Moments    X  0.00000   Y  0.05701   Z -0.00000
     Transition Moments   XX -0.00000  XY  0.00000  XZ  0.00000
     Transition Moments   YY  0.00000  YZ -1.50372  ZZ  0.00000
     Dipole Oscillator Strength                    0.0007075204
     Electric Quadrupole                           0.0000004192
     Magnetic Dipole                               0.0000019230
     Total Oscillator Strength                     0.0007098626

     Occ.    5  a   ---  Virt.   11  a       -0.06277
     Occ.    8  a   ---  Virt.    9  a        0.91765
     Occ.    8  a   ---  Virt.   11  a       -0.29018
     Occ.    8  a   ---  Virt.   14  a       -0.05035
     Occ.    8  a   ---  Virt.   15  a        0.09213
     Occ.    8  a   ---  Virt.   19  a        0.22534
  ----------------------------------------------------------------------------
  Root   3 singlet a              0.363278698 a.u.                9.8853 eV 
  ----------------------------------------------------------------------------
     Transition Moments    X -0.00000   Y  0.59452   Z -0.00000
     Transition Moments   XX  0.00000  XY -0.00000  XZ -0.00000
     Transition Moments   YY  0.00000  YZ -1.18743  ZZ -0.00000
     Dipole Oscillator Strength                    0.0856021171
     Electric Quadrupole                           0.0000003600
     Magnetic Dipole                               0.0000001717
     Total Oscillator Strength                     0.0856026488

     Occ.    5  a   ---  Virt.    9  a       -0.09506
     Occ.    5  a   ---  Virt.   11  a       -0.05636
     Occ.    8  a   ---  Virt.    9  a        0.29389
     Occ.    8  a   ---  Virt.   11  a        0.91442
     Occ.    8  a   ---  Virt.   14  a       -0.08529
     Occ.    8  a   ---  Virt.   15  a        0.16204
     Occ.    8  a   ---  Virt.   19  a       -0.10716
     Occ.    8  a   ---  Virt.   20  a        0.11252
  ----------------------------------------------------------------------------
  Root   4 singlet a              0.364604507 a.u.                9.9214 eV 
  ----------------------------------------------------------------------------
     Transition Moments    X -0.00000   Y -0.00000   Z -0.95272
     Transition Moments   XX  0.49134  XY -0.00000  XZ -0.00000
     Transition Moments   YY  0.74384  YZ  0.00000  ZZ -0.05552
     Dipole Oscillator Strength                    0.2206305999
     Electric Quadrupole                           0.0000000431
     Magnetic Dipole                               0.0000000000
     Total Oscillator Strength                     0.2206306430

     Occ.    4  a   ---  Virt.    9  a       -0.05479
     Occ.    5  a   ---  Virt.   16  a        0.08319
     Occ.    7  a   ---  Virt.   10  a       -0.40471
     Occ.    7  a   ---  Virt.   13  a       -0.31017
     Occ.    7  a   ---  Virt.   17  a       -0.07801
     Occ.    8  a   ---  Virt.   12  a        0.80514
     Occ.    8  a   ---  Virt.   16  a        0.18708
     Occ.    8  a   ---  Virt.   18  a        0.14784
     Occ.    8  a   ---  Virt.   22  a        0.07962
  ----------------------------------------------------------------------------
  Root   5 singlet a              0.384584651 a.u.               10.4651 eV 
  ----------------------------------------------------------------------------
     Transition Moments    X  0.00000   Y  0.00000   Z -0.00000
     Transition Moments   XX  0.00000  XY -0.00614  XZ -0.00000
     Transition Moments   YY -0.00000  YZ -0.00000  ZZ -0.00000
     Dipole Oscillator Strength                    0.0000000000
     Electric Quadrupole                           0.0000000000
     Magnetic Dipole                               0.0000001224
     Total Oscillator Strength                     0.0000001224

     Occ.    5  a   ---  Virt.   10  a        0.10407
     Occ.    5  a   ---  Virt.   13  a        0.11107
     Occ.    5  a   ---  Virt.   17  a        0.08364
     Occ.    8  a   ---  Virt.   10  a        0.57883
     Occ.    8  a   ---  Virt.   13  a       -0.77476
     Occ.    8  a   ---  Virt.   17  a        0.15123
     Occ.    8  a   ---  Virt.   23  a        0.09607
  ----------------------------------------------------------------------------
  Root   6 singlet a              0.385428156 a.u.               10.4880 eV 
  ----------------------------------------------------------------------------
     Transition Moments    X  0.01041   Y -0.00000   Z  0.00000
     Transition Moments   XX -0.00000  XY -0.00000  XZ -1.11730
     Transition Moments   YY  0.00000  YZ  0.00000  ZZ  0.00000
     Dipole Oscillator Strength                    0.0000278447
     Electric Quadrupole                           0.0000003806
     Magnetic Dipole                               0.0000075250
     Total Oscillator Strength                     0.0000357503

     Occ.    3  a   ---  Virt.   10  a        0.05249
     Occ.    3  a   ---  Virt.   13  a        0.06063
     Occ.    6  a   ---  Virt.   10  a       -0.72537
     Occ.    6  a   ---  Virt.   13  a       -0.62490
     Occ.    6  a   ---  Virt.   17  a       -0.23224
     Occ.    6  a   ---  Virt.   23  a        0.11263
     Occ.    6  a   ---  Virt.   28  a       -0.06271
  ----------------------------------------------------------------------------
  Root   7 singlet a              0.385532030 a.u.               10.4909 eV 
  ----------------------------------------------------------------------------
     Transition Moments    X  0.00000   Y -0.00000   Z -0.58827
     Transition Moments   XX  0.50640  XY -0.00000  XZ -0.00000
     Transition Moments   YY -0.61906  YZ  0.00000  ZZ -0.94182
     Dipole Oscillator Strength                    0.0889465772
     Electric Quadrupole                           0.0000001764
     Magnetic Dipole                               0.0000000000
     Total Oscillator Strength                     0.0889467536

     Occ.    6  a   ---  Virt.   20  a        0.07668
     Occ.    6  a   ---  Virt.   21  a        0.05002
     Occ.    6  a   ---  Virt.   24  a       -0.05327
     Occ.    6  a   ---  Virt.   26  a        0.05455
     Occ.    6  a   ---  Virt.   27  a        0.05192
     Occ.    7  a   ---  Virt.   10  a       -0.65303
     Occ.    7  a   ---  Virt.   13  a       -0.42459
     Occ.    7  a   ---  Virt.   17  a       -0.10565
     Occ.    8  a   ---  Virt.   12  a       -0.54357
     Occ.    8  a   ---  Virt.   16  a        0.13947
     Occ.    8  a   ---  Virt.   18  a       -0.14933
     Occ.    8  a   ---  Virt.   22  a        0.08680
  ----------------------------------------------------------------------------
  Root   8 singlet a              0.417704168 a.u.               11.3663 eV 
  ----------------------------------------------------------------------------
     Transition Moments    X  0.00000   Y -0.00000   Z  0.00000
     Transition Moments   XX -0.00000  XY  0.73504  XZ  0.00000
     Transition Moments   YY -0.00000  YZ  0.00000  ZZ -0.00000
     Dipole Oscillator Strength                    0.0000000000
     Electric Quadrupole                           0.0000002097
     Magnetic Dipole                               0.0000013916
     Total Oscillator Strength                     0.0000016013

     Occ.    5  a   ---  Virt.   10  a       -0.70740
     Occ.    5  a   ---  Virt.   13  a       -0.60933
     Occ.    5  a   ---  Virt.   17  a       -0.18605
     Occ.    5  a   ---  Virt.   23  a        0.10573
     Occ.    8  a   ---  Virt.   10  a        0.21390
     Occ.    8  a   ---  Virt.   13  a       -0.07958
     Occ.    8  a   ---  Virt.   17  a       -0.15468
  ----------------------------------------------------------------------------
  Root   9 singlet a              0.431429068 a.u.               11.7398 eV 
  ----------------------------------------------------------------------------
     Transition Moments    X -0.62554   Y -0.00000   Z -0.00000
     Transition Moments   XX -0.00000  XY  0.00000  XZ -0.46704
     Transition Moments   YY  0.00000  YZ -0.00000  ZZ  0.00000
     Dipole Oscillator Strength                    0.1125442197
     Electric Quadrupole                           0.0000000933
     Magnetic Dipole                               0.0000000170
     Total Oscillator Strength                     0.1125443300

     Occ.    7  a   ---  Virt.    9  a        0.88923
     Occ.    7  a   ---  Virt.   11  a       -0.38387
     Occ.    7  a   ---  Virt.   15  a        0.05459
     Occ.    7  a   ---  Virt.   19  a        0.23643
  ----------------------------------------------------------------------------
  Root  10 singlet a              0.465493118 a.u.               12.6667 eV 
  ----------------------------------------------------------------------------
     Transition Moments    X  0.00000   Y  0.31030   Z -0.00000
     Transition Moments   XX  0.00000  XY  0.00000  XZ -0.00000
     Transition Moments   YY  0.00000  YZ  0.24482  ZZ -0.00000
     Dipole Oscillator Strength                    0.0298796469
     Electric Quadrupole                           0.0000000322
     Magnetic Dipole                               0.0000032653
     Total Oscillator Strength                     0.0298829444

     Occ.    5  a   ---  Virt.    9  a       -0.08048
     Occ.    5  a   ---  Virt.   11  a        0.11029
     Occ.    5  a   ---  Virt.   14  a       -0.09492
     Occ.    8  a   ---  Virt.    9  a       -0.08058
     Occ.    8  a   ---  Virt.   14  a       -0.96233
     Occ.    8  a   ---  Virt.   19  a        0.08774
     Occ.    8  a   ---  Virt.   20  a       -0.12970
     Occ.    8  a   ---  Virt.   27  a       -0.05457

              Target root =      1
          Target symmetry = none
      Ground state energy =   -113.906235689650
        Excitation energy =      0.183867542154
     Excited state energy =   -113.722368147497

  stored tddft:energy   -113.72236814749651     
 fn_civecs: ./H2COWat_VEMExc_CISHF.civecs_singlet                                                                                                                                                                                                                          

  CI vectors are stored in ./H2COWat_VEMExc_CISHF.civecs_si


                           NWChem TDDFT Gradient Module
                           ----------------------------


 ./H2COWat_VEMExc_CISHF.civecs_singlet                                                                                                                                                                                                                          

 solvent parameters
 solvname_short: h2o     
 solvname_long:  water                              
 dielec:       78.4000
 dielecinf:     1.8000
 aqueous SMD model solvent descriptors
 dielec:       78.4000
 sola:          0.8200

 solvent accessible surface
 --------------------------

 ---------- ATOMIC COORDINATES (A.U.) ------------ VDWR(ANG.) --
     1    0.00000000    0.00000000    1.27426302     1.520
     2    0.00000000    0.00000000   -0.99749753     1.850
     3    0.00000000    1.77073561   -2.10456138     1.200
     4    0.00000000   -1.77073561   -2.10456138     1.200
 number of segments per atom =        128
 number of   points per atom =        128
 atom (   nspa,  nppa )
 ----------------------
    1 (     80,     0 )       0
    2 (     84,     0 )       0
    3 (     56,     0 )       0
    4 (     56,     0 )       0
 number of -cosmo- surface points =      276
 molecular surface =     53.589 angstrom**2
 molecular volume  =     28.564 angstrom**3
 G(SMD-CDS) energy (kcal/mol)  =     4.106
 SMD-CDS SASA (angstrom**2)    =    74.096

 Calculated gradients of:
 Number of Singlet roots   1
 Singlet roots    1

 Start at time  cpu:       20.5s  wall:       20.5s

 nroot:                     1
TDDFT Energy Check(  1) =       0.18386754215365


Iterative solution of linear equations
  No. of variables      352
  No. of equations        1
  Maximum subspace       40
        Iterations      250
       Convergence  1.0D-05
        Start time     26.8


   iter   nsub   residual    time
   ----  ------  --------  ---------
     1      1    1.22D-01      28.5
     2      2    2.65D-02      30.2
     3      3    5.53D-03      31.8
     4      4    1.33D-03      33.4
     5      5    3.97D-04      35.0
     6      6    8.37D-05      36.5
     7      7    1.51D-05      38.1
     8      8    1.65D-06      39.5

     Multipole analysis of the density
     ---------------------------------

     L   x y z        total
     -   - - -        -----
     0   0 0 0     -0.000000

     1   1 0 0      0.000000
     1   0 1 0      0.000000
     1   0 0 1     -1.038719

     2   2 0 0    -10.555305
     2   1 1 0      0.000000
     2   1 0 1     -0.000000
     2   0 2 0     -7.384733
     2   0 1 1     -0.000000
     2   0 0 2     -8.701892


     No. of electrons (tr(P*S)):     0.1600000E+02


                          COSMO-VEM solvation results
                          ---------------------------
 Reference for the VEM model:
 Marenich, A. V.; Cramer, C. J.; Truhlar, D. G.; Guido, C. A.; Mennucci, B.;
 Scalmani, G.; Frisch, M. J. Chem. Sci. 2011, 2, 2143

 excitation spectrum data:  GS = initial state, ES = final state
 iteration #1
 (1)          GS equilibrium total free energy =      -113.9127794990
 (2)               GS polarization free energy =        -0.0186380248 (   -0.5072 eV)
 (3)                 GSRF ES total free energy =      -113.7289119569
 (4)          GSRF ES polarization free energy =        -0.0047785681 (   -0.1300 eV)
 (5)          GSRF excitation energy (3) - (1) =         0.1838675422 (    5.0033 eV)
 (6)                cGSRF ES total free energy =      -113.7318080898
 (7)         cGSRF ES polarization free energy =        -0.0076747011 (   -0.2088 eV)
 (8)        fast polarization component of (7) =        -0.0050473804 (   -0.1373 eV)
 (9)                 1/2 * delV * delQdyn term =        -0.0028961329 (   -0.0788 eV)
 (10)        cGSRF excitation energy (6) - (1) =         0.1809714092 (    4.9245 eV)

 TDDFT Gradient time  cpu:       24.1s  wall:       24.1s

                                 NWChem DFT Module
                                 -----------------




 Summary of "ao basis" -> "ao basis" (cartesian)
 ------------------------------------------------------------------------------
       Tag                 Description            Shells   Functions and Types
 ---------------- ------------------------------  ------  ---------------------
 O                          6-311+G*                10       23   5s4p1d
 C                          6-311+G*                10       23   5s4p1d
 H                          6-311+G*                 3        3   3s



 solvent parameters
 solvname_short: h2o     
 solvname_long:  water                              
 dielec:       78.4000
 dielecinf:     1.8000
 aqueous SMD model solvent descriptors
 dielec:       78.4000
 sola:          0.8200

          ---------------
          -cosmo- solvent
          ---------------
 Cosmo: York-Karplus, doi: 10.1021/jp992097l
 dielectric constant -eps-     =  78.40
 screen = (eps-1)/(eps    )    =   0.98724
 surface charge correction     = lagrangian

 solvent accessible surface
 --------------------------

 ---------- ATOMIC COORDINATES (A.U.) ------------ VDWR(ANG.) --
     1    0.00000000    0.00000000    1.27426302     1.520
     2    0.00000000    0.00000000   -0.99749753     1.850
     3    0.00000000    1.77073561   -2.10456138     1.200
     4    0.00000000   -1.77073561   -2.10456138     1.200
 number of segments per atom =        128
 number of   points per atom =        128
 atom (   nspa,  nppa )
 ----------------------
    1 (     80,     0 )       0
    2 (     84,     0 )       0
    3 (     56,     0 )       0
    4 (     56,     0 )       0
 number of -cosmo- surface points =      276
 molecular surface =     53.589 angstrom**2
 molecular volume  =     28.564 angstrom**3
 -lineq- algorithm             =   0
 -bem- low  level              =   3
 -bem- from -octahedral-
 gaussian surface charge width =   4.50000
 degree of switching           =   1.00000
 switching function tolerance  =   0.00010
 atomic radii = 
 --------------
    1  8.000  1.520
    2  6.000  1.850
    3  1.000  1.200
    4  1.000  1.200
 ...... end of -cosmo- initialization ......


 G(SMD-CDS) energy (kcal/mol)  =     4.106
 SMD-CDS SASA (angstrom**2)    =    74.096

  Caching 1-el integrals 

            General Information
            -------------------
          SCF calculation type: DFT
          Wavefunction type:  closed shell.
          No. of atoms     :     4
          No. of electrons :    16
           Alpha electrons :     8
            Beta electrons :     8
          Charge           :     0
          Spin multiplicity:     1
          Use of symmetry is: off; symmetry adaption is: off
          Maximum number of iterations:  50
          AO basis - number of functions:    52
                     number of shells:    26
          Convergence on energy requested:  1.00D-06
          Convergence on density requested:  1.00D-05
          Convergence on gradient requested:  5.00D-04

              XC Information
              --------------
                     Hartree-Fock (Exact) Exchange  1.000          

          Convergence Information
          -----------------------
          Convergence aids based upon iterative change in 
          total energy or number of iterations. 
          Levelshifting, if invoked, occurs when the 
          HOMO/LUMO gap drops below (HL_TOL):  1.00D-02
          DIIS, if invoked, will attempt to extrapolate 
          using up to (NFOCK): 10 stored Fock matrices.

                    Damping( 0%)  Levelshifting(0.5)       DIIS
                  --------------- ------------------- ---------------
          dE  on:    start            ASAP                start   
          dE off:    2 iters         50 iters            50 iters 


      Screening Tolerance Information
      -------------------------------
          Density screening/tol_rho:  1.00D-10
          AO Gaussian exp screening on grid/accAOfunc:  14
          CD Gaussian exp screening on grid/accCDfunc:  20
          XC Gaussian exp screening on grid/accXCfunc:  20
          Schwarz screening/accCoul:  1.00D-08


 Loading old vectors from job with title :



   Time after variat. SCF:     44.6
   Time prior to 1st pass:     44.6

 Integral file          = ./H2COWat_VEMExc_CISHF.aoints.0
 Record size in doubles =  65536        No. of integs per rec  =  43688
 Max. records in memory =     10        Max. records in file   = 120026
 No. of bits per label  =      8        No. of bits per value  =     64


 #quartets = 6.120D+04 #integrals = 3.799D+05 #direct =  0.0% #cached =100.0%


File balance: exchanges=     0  moved=     0  time=   0.0


           Memory utilization after 1st SCF pass: 
           Heap Space remaining (MW):       12.45            12447348
[...]
     Transition Moments   XX  0.00000  XY -0.67163  XZ  0.00000
     Transition Moments   YY  0.00000  YZ -0.00000  ZZ -0.00000
     Dipole Oscillator Strength                    0.0000000000
     Electric Quadrupole                           0.0000000133
     Magnetic Dipole                               0.0000022139
     Total Oscillator Strength                     0.0000022272

     Occ.    5  a   ---  Virt.    9  a       -0.05376
     Occ.    8  a   ---  Virt.    9  a       -0.75173
     Occ.    8  a   ---  Virt.   13  a       -0.60586
     Occ.    8  a   ---  Virt.   17  a       -0.21805
     Occ.    8  a   ---  Virt.   23  a        0.08835
     Occ.    8  a   ---  Virt.   28  a       -0.05499
  ----------------------------------------------------------------------------
  Root   2 singlet a              0.322241149 a.u.                8.7686 eV 
  ----------------------------------------------------------------------------
     Transition Moments    X  0.00000   Y  0.06121   Z -0.00000
     Transition Moments   XX -0.00000  XY  0.00000  XZ  0.00000
     Transition Moments   YY -0.00000  YZ -1.50633  ZZ  0.00000
     Dipole Oscillator Strength                    0.0008049133
     Electric Quadrupole                           0.0000004043
     Magnetic Dipole                               0.0000018696
     Total Oscillator Strength                     0.0008071872

     Occ.    5  a   ---  Virt.   11  a       -0.06238
     Occ.    8  a   ---  Virt.   10  a        0.92021
     Occ.    8  a   ---  Virt.   11  a       -0.28670
     Occ.    8  a   ---  Virt.   15  a        0.09305
     Occ.    8  a   ---  Virt.   19  a        0.21989
  ----------------------------------------------------------------------------
  Root   3 singlet a              0.358903868 a.u.                9.7663 eV 
  ----------------------------------------------------------------------------
     Transition Moments    X  0.00000   Y  0.59161   Z -0.00000
     Transition Moments   XX  0.00000  XY  0.00000  XZ -0.00000
     Transition Moments   YY  0.00000  YZ -1.18337  ZZ -0.00000
     Dipole Oscillator Strength                    0.0837457989
     Electric Quadrupole                           0.0000003447
     Magnetic Dipole                               0.0000001788
     Total Oscillator Strength                     0.0837463224

     Occ.    5  a   ---  Virt.   10  a       -0.09390
     Occ.    5  a   ---  Virt.   11  a       -0.05598
     Occ.    8  a   ---  Virt.   10  a        0.28925
     Occ.    8  a   ---  Virt.   11  a        0.91644
     Occ.    8  a   ---  Virt.   14  a       -0.08075
     Occ.    8  a   ---  Virt.   15  a        0.16244
     Occ.    8  a   ---  Virt.   19  a       -0.10579
     Occ.    8  a   ---  Virt.   20  a        0.11405
  ----------------------------------------------------------------------------
  Root   4 singlet a              0.360931692 a.u.                9.8215 eV 
  ----------------------------------------------------------------------------
     Transition Moments    X -0.00000   Y -0.00000   Z -0.98951
     Transition Moments   XX  0.53149  XY -0.00000  XZ  0.00000
     Transition Moments   YY  0.71910  YZ  0.00000  ZZ -0.10027
     Dipole Oscillator Strength                    0.2355977278
     Electric Quadrupole                           0.0000000461
     Magnetic Dipole                               0.0000000000
     Total Oscillator Strength                     0.2355977740

     Occ.    4  a   ---  Virt.   10  a       -0.05590
     Occ.    5  a   ---  Virt.   16  a        0.08384
     Occ.    7  a   ---  Virt.    9  a       -0.44954
     Occ.    7  a   ---  Virt.   13  a       -0.33331
     Occ.    7  a   ---  Virt.   17  a       -0.08249
     Occ.    8  a   ---  Virt.   12  a        0.77043
     Occ.    8  a   ---  Virt.   16  a        0.18829
     Occ.    8  a   ---  Virt.   18  a        0.13769
     Occ.    8  a   ---  Virt.   22  a        0.08463
  ----------------------------------------------------------------------------
  Root   5 singlet a              0.378094713 a.u.               10.2885 eV 
  ----------------------------------------------------------------------------
     Transition Moments    X -0.01229   Y  0.00000   Z  0.00000
     Transition Moments   XX -0.00000  XY  0.00000  XZ  1.11935
     Transition Moments   YY  0.00000  YZ -0.00000  ZZ  0.00000
     Dipole Oscillator Strength                    0.0000380476
     Electric Quadrupole                           0.0000003606
     Magnetic Dipole                               0.0000073797
     Total Oscillator Strength                     0.0000457879

     Occ.    3  a   ---  Virt.    9  a       -0.05254
     Occ.    3  a   ---  Virt.   13  a       -0.06045
     Occ.    6  a   ---  Virt.    9  a        0.72998
     Occ.    6  a   ---  Virt.   13  a        0.62093
     Occ.    6  a   ---  Virt.   17  a        0.22912
     Occ.    6  a   ---  Virt.   23  a       -0.11278
     Occ.    6  a   ---  Virt.   28  a        0.06205
  ----------------------------------------------------------------------------
  Root   6 singlet a              0.378391284 a.u.               10.2966 eV 
  ----------------------------------------------------------------------------
     Transition Moments    X  0.00000   Y  0.00000   Z -0.00000
     Transition Moments   XX  0.00000  XY -0.00891  XZ -0.00000
     Transition Moments   YY -0.00000  YZ -0.00000  ZZ -0.00000
     Dipole Oscillator Strength                    0.0000000000
     Electric Quadrupole                           0.0000000000
     Magnetic Dipole                               0.0000001145
     Total Oscillator Strength                     0.0000001145

     Occ.    5  a   ---  Virt.    9  a       -0.09148
     Occ.    5  a   ---  Virt.   13  a       -0.09989
     Occ.    5  a   ---  Virt.   17  a       -0.07811
     Occ.    8  a   ---  Virt.    9  a       -0.58030
     Occ.    8  a   ---  Virt.   13  a        0.77928
     Occ.    8  a   ---  Virt.   17  a       -0.14062
     Occ.    8  a   ---  Virt.   23  a       -0.09789
  ----------------------------------------------------------------------------
  Root   7 singlet a              0.380595245 a.u.               10.3565 eV 
  ----------------------------------------------------------------------------
     Transition Moments    X -0.00000   Y -0.00000   Z -0.52882
     Transition Moments   XX  0.48948  XY  0.00000  XZ  0.00000
     Transition Moments   YY -0.64803  YZ  0.00000  ZZ -0.91958
     Dipole Oscillator Strength                    0.0709546446
     Electric Quadrupole                           0.0000001641
     Magnetic Dipole                               0.0000000000
     Total Oscillator Strength                     0.0709548087

     Occ.    6  a   ---  Virt.   20  a        0.07465
     Occ.    6  a   ---  Virt.   24  a       -0.05196
     Occ.    6  a   ---  Virt.   26  a        0.05261
     Occ.    6  a   ---  Virt.   27  a        0.05066
     Occ.    7  a   ---  Virt.    9  a       -0.63343
     Occ.    7  a   ---  Virt.   13  a       -0.39796
     Occ.    7  a   ---  Virt.   17  a       -0.09817
     Occ.    8  a   ---  Virt.   12  a       -0.59217
     Occ.    8  a   ---  Virt.   16  a        0.12037
     Occ.    8  a   ---  Virt.   18  a       -0.15762
     Occ.    8  a   ---  Virt.   22  a        0.08097
  ----------------------------------------------------------------------------
  Root   8 singlet a              0.413255647 a.u.               11.2453 eV 
  ----------------------------------------------------------------------------
     Transition Moments    X  0.00000   Y  0.00000   Z -0.00000
     Transition Moments   XX -0.00000  XY  0.73477  XZ -0.00000
     Transition Moments   YY  0.00000  YZ -0.00000  ZZ  0.00000
     Dipole Oscillator Strength                    0.0000000000
     Electric Quadrupole                           0.0000002029
     Magnetic Dipole                               0.0000013767
     Total Oscillator Strength                     0.0000015796

     Occ.    5  a   ---  Virt.    9  a       -0.71417
     Occ.    5  a   ---  Virt.   13  a       -0.60737
     Occ.    5  a   ---  Virt.   17  a       -0.18548
     Occ.    5  a   ---  Virt.   23  a        0.10653
     Occ.    8  a   ---  Virt.    9  a        0.19980
     Occ.    8  a   ---  Virt.   13  a       -0.06617
     Occ.    8  a   ---  Virt.   17  a       -0.15670
  ----------------------------------------------------------------------------
  Root   9 singlet a              0.428020584 a.u.               11.6470 eV 
  ----------------------------------------------------------------------------
     Transition Moments    X -0.62294   Y -0.00000   Z  0.00000
     Transition Moments   XX  0.00000  XY  0.00000  XZ -0.46325
     Transition Moments   YY -0.00000  YZ -0.00000  ZZ  0.00000
     Dipole Oscillator Strength                    0.1107316023
     Electric Quadrupole                           0.0000000896
     Magnetic Dipole                               0.0000000174
     Total Oscillator Strength                     0.1107317094

     Occ.    7  a   ---  Virt.   10  a        0.89161
     Occ.    7  a   ---  Virt.   11  a       -0.38171
     Occ.    7  a   ---  Virt.   15  a        0.05530
     Occ.    7  a   ---  Virt.   19  a        0.23094
  ----------------------------------------------------------------------------
  Root  10 singlet a              0.466069835 a.u.               12.6824 eV 
  ----------------------------------------------------------------------------
     Transition Moments    X -0.00000   Y  0.32670   Z -0.00000
     Transition Moments   XX  0.00000  XY -0.00000  XZ  0.00000
     Transition Moments   YY  0.00000  YZ  0.21128  ZZ -0.00000
     Dipole Oscillator Strength                    0.0331636205
     Electric Quadrupole                           0.0000000241
     Magnetic Dipole                               0.0000033925
     Total Oscillator Strength                     0.0331670370

     Occ.    5  a   ---  Virt.   10  a       -0.08400
     Occ.    5  a   ---  Virt.   11  a        0.11088
     Occ.    5  a   ---  Virt.   14  a       -0.09325
     Occ.    8  a   ---  Virt.   10  a       -0.07881
     Occ.    8  a   ---  Virt.   14  a       -0.96104
     Occ.    8  a   ---  Virt.   19  a        0.08936
     Occ.    8  a   ---  Virt.   20  a       -0.13580
     Occ.    8  a   ---  Virt.   27  a       -0.05490

              Target root =      1
          Target symmetry = none
      Ground state energy =   -113.903126957540
        Excitation energy =      0.177063476613
     Excited state energy =   -113.726063480927

  stored tddft:energy   -113.72606348092739     
 fn_civecs: ./H2COWat_VEMExc_CISHF.civecs_singlet                                                                                                                                                                                                                          

  CI vectors are stored in ./H2COWat_VEMExc_CISHF.civecs_si


                           NWChem TDDFT Gradient Module
                           ----------------------------


 ./H2COWat_VEMExc_CISHF.civecs_singlet                                                                                                                                                                                                                          

 solvent parameters
 solvname_short: h2o     
 solvname_long:  water                              
 dielec:       78.4000
 dielecinf:     1.8000
 aqueous SMD model solvent descriptors
 dielec:       78.4000
 sola:          0.8200

 solvent accessible surface
 --------------------------

 ---------- ATOMIC COORDINATES (A.U.) ------------ VDWR(ANG.) --
     1    0.00000000    0.00000000    1.27426302     1.520
     2    0.00000000    0.00000000   -0.99749753     1.850
     3    0.00000000    1.77073561   -2.10456138     1.200
     4    0.00000000   -1.77073561   -2.10456138     1.200
 number of segments per atom =        128
 number of   points per atom =        128
 atom (   nspa,  nppa )
 ----------------------
    1 (     80,     0 )       0
    2 (     84,     0 )       0
    3 (     56,     0 )       0
    4 (     56,     0 )       0
 number of -cosmo- surface points =      276
 molecular surface =     53.589 angstrom**2
 molecular volume  =     28.564 angstrom**3
 G(SMD-CDS) energy (kcal/mol)  =     4.106
 SMD-CDS SASA (angstrom**2)    =    74.096

 Calculated gradients of:
 Number of Singlet roots   1
 Singlet roots    1

 Start at time  cpu:      107.8s  wall:      107.8s

 nroot:                     1
TDDFT Energy Check(  1) =       0.17706347661277


Iterative solution of linear equations
  No. of variables      352
  No. of equations        1
  Maximum subspace       40
        Iterations      250
       Convergence  1.0D-05
        Start time    114.2


   iter   nsub   residual    time
   ----  ------  --------  ---------
     1      1    1.22D-01     115.8
     2      2    2.65D-02     117.3
     3      3    5.46D-03     118.8
     4      4    1.37D-03     120.3
     5      5    4.09D-04     121.8
     6      6    8.45D-05     123.2
     7      7    1.55D-05     124.7
     8      8    1.66D-06     126.3

     Multipole analysis of the density
     ---------------------------------

     L   x y z        total
     -   - - -        -----
     0   0 0 0     -0.000000

     1   1 0 0      0.000000
     1   0 1 0      0.000000
     1   0 0 1     -1.037841

     2   2 0 0    -10.602769
     2   1 1 0     -0.000000
     2   1 0 1     -0.000000
     2   0 2 0     -7.394442
     2   0 1 1     -0.000000
     2   0 0 2     -8.720460


     No. of electrons (tr(P*S)):     0.1600000E+02


                          COSMO-VEM solvation results
                          ---------------------------
 Reference for the VEM model:
 Marenich, A. V.; Cramer, C. J.; Truhlar, D. G.; Guido, C. A.; Mennucci, B.;
 Scalmani, G.; Frisch, M. J. Chem. Sci. 2011, 2, 2143

 excitation spectrum data:  GS = initial state, ES = final state
 iteration #3
 (1)          GS equilibrium total free energy =      -113.9127794990
 (2)               GS polarization free energy =        -0.0186380248 (   -0.5072 eV)
 (3)                 GSRF ES total free energy =      -113.7289119569
 (4)          GSRF ES polarization free energy =        -0.0048300655 (   -0.1314 eV)
 (5)          GSRF excitation energy (3) - (1) =         0.1838675422 (    5.0033 eV)
 (6)                  VEM ES total free energy =      -113.7328217334
 (7)           VEM ES polarization free energy =        -0.0077243545 (   -0.2102 eV)
 (8)        fast polarization component of (7) =        -0.0050687198 (   -0.1379 eV)
 (9)                 1/2 * delV * delQdyn term =        -0.0028942890 (   -0.0788 eV)
 (10) VEM vertical excitation energy (6) - (1) =         0.1799577656 (    4.8969 eV)

 VEM vertical excitation energy converged

 TDDFT Gradient time  cpu:       23.7s  wall:       23.7s

 Task  times  cpu:      131.5s     wall:      131.5s


                                NWChem Input Module
                                -------------------


 Summary of allocated global arrays
-----------------------------------
  No active global arrays



                         GA Statistics for process    0
                         ------------------------------

       create   destroy   get      put      acc     scatter   gather  read&inc
calls: 2836     2836     5.83e+06 1.28e+05 5.12e+06  605        0      700     
number of processes/call -1.45e+12 -1.79e+13 2.21e+10 0.00e+00 0.00e+00
bytes total:             7.06e+08 6.79e+07 8.83e+08 1.60e+02 0.00e+00 5.60e+03
bytes remote:            4.78e+08 1.01e+07 7.77e+08 -5.44e+02 0.00e+00 0.00e+00
Max memory consumed for GA by this process: 8836928 bytes

MA_summarize_allocated_blocks: starting scan ...
MA_summarize_allocated_blocks: scan completed: 0 heap blocks, 0 stack blocks
MA usage statistics:

	allocation statistics:
					      heap	     stack
					      ----	     -----
	current number of blocks	         0	         0
	maximum number of blocks	        23	        72
	current total bytes		         0	         0
	maximum total bytes		   5279336	  34637032
	maximum total K-bytes		      5280	     34638
	maximum total M-bytes		         6	        35


                                     CITATION
                                     --------
                Please cite the following reference when publishing
                           results obtained with NWChem:

          E. Apra, E. J. Bylaska, W. A. de Jong, N. Govind, K. Kowalski,
       T. P. Straatsma, M. Valiev, H. J. J. van Dam, Y. Alexeev, J. Anchell,
       V. Anisimov, F. W. Aquino, R. Atta-Fynn, J. Autschbach, N. P. Bauman,
     J. C. Becca, D. E. Bernholdt, K. Bhaskaran-Nair, S. Bogatko, P. Borowski,
         J. Boschen, J. Brabec, A. Bruner, E. Cauet, Y. Chen, G. N. Chuev,
      C. J. Cramer, J. Daily, M. J. O. Deegan, T. H. Dunning Jr., M. Dupuis,
   K. G. Dyall, G. I. Fann, S. A. Fischer, A. Fonari, H. Fruchtl, L. Gagliardi,
      J. Garza, N. Gawande, S. Ghosh, K. Glaesemann, A. W. Gotz, J. Hammond,
       V. Helms, E. D. Hermes, K. Hirao, S. Hirata, M. Jacquelin, L. Jensen,
   B. G. Johnson, H. Jonsson, R. A. Kendall, M. Klemm, R. Kobayashi, V. Konkov,
      S. Krishnamoorthy, M. Krishnan, Z. Lin, R. D. Lins, R. J. Littlefield,
      A. J. Logsdail, K. Lopata, W. Ma, A. V. Marenich, J. Martin del Campo,
   D. Mejia-Rodriguez, J. E. Moore, J. M. Mullin, T. Nakajima, D. R. Nascimento,
    J. A. Nichols, P. J. Nichols, J. Nieplocha, A. Otero-de-la-Roza, B. Palmer,
    A. Panyala, T. Pirojsirikul, B. Peng, R. Peverati, J. Pittner, L. Pollack,
   R. M. Richard, P. Sadayappan, G. C. Schatz, W. A. Shelton, D. W. Silverstein,
   D. M. A. Smith, T. A. Soares, D. Song, M. Swart, H. L. Taylor, G. S. Thomas,
            V. Tipparaju, D. G. Truhlar, K. Tsemekhman, T. Van Voorhis,
      A. Vazquez-Mayagoitia, P. Verma, O. Villa, A. Vishnu, K. D. Vogiatzis,
        D. Wang, J. H. Weare, M. J. Williamson, T. L. Windus, K. Wolinski,
        A. T. Wong, Q. Wu, C. Yang, Q. Yu, M. Zacharias, Z. Zhang, Y. Zhao,
                                and R. J. Harrison
                        "NWChem: Past, present, and future
                         J. Chem. Phys. 152, 184102 (2020)
                               doi:10.1063/5.0004997

                                      AUTHORS
                                      -------
     E. Apra, E. J. Bylaska, N. Govind, K. Kowalski, M. Valiev, W. A. de Jong,
      T. P. Straatsma, H. J. J. van Dam, D. Wang, T. L. Windus, N. P. Bauman,
       A. Panyala, J. Hammond, J. Autschbach, K. Bhaskaran-Nair, J. Brabec,
    K. Lopata, S. A. Fischer, S. Krishnamoorthy, M. Jacquelin, W. Ma, M. Klemm,
       O. Villa, Y. Chen, V. Anisimov, F. Aquino, S. Hirata, M. T. Hackler,
           Eric Hermes, L. Jensen, J. E. Moore, J. C. Becca, V. Konjkov,
            D. Mejia-Rodriguez, T. Risthaus, M. Malagoli, A. Marenich,
   A. Otero-de-la-Roza, J. Mullin, P. Nichols, R. Peverati, J. Pittner, Y. Zhao,
        P.-D. Fan, A. Fonari, M. J. Williamson, R. J. Harrison, J. R. Rehr,
      M. Dupuis, D. Silverstein, D. M. A. Smith, J. Nieplocha, V. Tipparaju,
      M. Krishnan, B. E. Van Kuiken, A. Vazquez-Mayagoitia, M. Swart, Q. Wu,
   T. Van Voorhis, A. A. Auer, M. Nooijen, L. D. Crosby, E. Brown, G. Cisneros,
     G. I. Fann, H. Fruchtl, J. Garza, K. Hirao, R. A. Kendall, J. A. Nichols,
       K. Tsemekhman, K. Wolinski, J. Anchell, D. E. Bernholdt, P. Borowski,
       T. Clark, D. Clerc, H. Dachsel, M. J. O. Deegan, K. Dyall, D. Elwood,
      E. Glendening, M. Gutowski, A. C. Hess, J. Jaffe, B. G. Johnson, J. Ju,
        R. Kobayashi, R. Kutteh, Z. Lin, R. Littlefield, X. Long, B. Meng,
      T. Nakajima, S. Niu, L. Pollack, M. Rosing, K. Glaesemann, G. Sandrone,
      M. Stave, H. Taylor, G. Thomas, J. H. van Lenthe, A. T. Wong, Z. Zhang.

 Total times  cpu:      131.5s     wall:      131.5s
