 argument  1 = /home/edo/nwchem/nwchem.oct/QA/tests/ch5n_nbo/ch5n_nbo.nw
 


============================== echo of input deck ==============================
title "Methylamine...rhf/3-21g//Pople-Gordon standard geometry"

start methylamine

echo
memory 300 mb

basis
 C library 3-21g
 N library 3-21g
 H library 3-21g
end

geometry
 C            .052902     .711852     .000000
 N            .052902    -.758148     .000000
 H           -.974760    1.075185     .000000
 H            .566733    1.075185     .889981
 H            .566733    1.075185    -.889981
 H           -.423217   -1.094815     .824662
 H           -.423217   -1.094815    -.824662
# symmetry c1
end

scf
 sym off
 adapt off
end

task SCF energy

property
 nbofile
end

task scf property

# If NBO is installed
#nbo
#end
#task nbo

================================================================================


                                         
                                         
 
 
             Northwest Computational Chemistry Package (NWChem) 7.2.0
             --------------------------------------------------------
 
 
                    Environmental Molecular Sciences Laboratory
                       Pacific Northwest National Laboratory
                                Richland, WA 99352
 
                              Copyright (c) 1994-2022
                       Pacific Northwest National Laboratory
                            Battelle Memorial Institute
 
             NWChem is an open-source computational chemistry package
                        distributed under the terms of the
                      Educational Community License (ECL) 2.0
             A copy of the license is included with this distribution
                              in the LICENSE.TXT file
 
                                  ACKNOWLEDGMENT
                                  --------------

            This software and its documentation were developed at the
            EMSL at Pacific Northwest National Laboratory, a multiprogram
            national laboratory, operated for the U.S. Department of Energy
            by Battelle under Contract Number DE-AC05-76RL01830. Support
            for this work was provided by the Department of Energy Office
            of Biological and Environmental Research, Office of Basic
            Energy Sciences, and the Office of Advanced Scientific Computing.


           Job information
           ---------------

    hostname        = durian
    program         = /home/edo/nwchem/nwchem.oct/bin/LINUX64/nwchem
    date            = Mon Jan 16 10:44:52 2023

    compiled        = Tue_Dec_13_14:54:27_2022
    source          = /home/edo/nwchem/nwchem.oct
    nwchem branch   = 7.2.0
    nwchem revision = nwchem_on_git-2075-g1766b18b9d
    ga revision     = 5.8.1
    use scalapack   = T
    input           = /home/edo/nwchem/nwchem.oct/QA/tests/ch5n_nbo/ch5n_nbo.nw
    prefix          = methylamine.
    data base       = ./methylamine.db
    status          = startup
    nproc           =        2
    time left       =     -1s



           Memory information
           ------------------

    heap     =   15291727 doubles =    116.7 Mbytes
    stack    =   15291729 doubles =    116.7 Mbytes
    global   =    8738133 doubles =     66.7 Mbytes (distinct from heap & stack)
    total    =   39321589 doubles =    300.0 Mbytes
    verify   = yes
    hardfail = no 


           Directory information
           ---------------------
 
  0 permanent = .
  0 scratch   = .
 
 
 
 
                                NWChem Input Module
                                -------------------
 
 
              Methylamine...rhf/3-21g//Pople-Gordon standard geometry
              -------------------------------------------------------
                      Basis "ao basis" -> "" (cartesian)
                      -----
  C (Carbon)
  ----------
            Exponent  Coefficients 
       -------------- ---------------------------------------------------------
  1 S  1.72256000E+02  0.061767
  1 S  2.59109000E+01  0.358794
  1 S  5.53335000E+00  0.700713
 
  2 S  3.66498000E+00 -0.395897
  2 S  7.70545000E-01  1.215840
 
  3 P  3.66498000E+00  0.236460
  3 P  7.70545000E-01  0.860619
 
  4 S  1.95857000E-01  1.000000
 
  5 P  1.95857000E-01  1.000000
 
  N (Nitrogen)
  ------------
            Exponent  Coefficients 
       -------------- ---------------------------------------------------------
  1 S  2.42766000E+02  0.059866
  1 S  3.64851000E+01  0.352955
  1 S  7.81449000E+00  0.706513
 
  2 S  5.42522000E+00 -0.413301
  2 S  1.14915000E+00  1.224420
 
  3 P  5.42522000E+00  0.237972
  3 P  1.14915000E+00  0.858953
 
  4 S  2.83205000E-01  1.000000
 
  5 P  2.83205000E-01  1.000000
 
  H (Hydrogen)
  ------------
            Exponent  Coefficients 
       -------------- ---------------------------------------------------------
  1 S  5.44717800E+00  0.156285
  1 S  8.24547000E-01  0.904691
 
  2 S  1.83192000E-01  1.000000
 


 Summary of "ao basis" -> "" (cartesian)
 ------------------------------------------------------------------------------
       Tag                 Description            Shells   Functions and Types
 ---------------- ------------------------------  ------  ---------------------
 C                           3-21g                   5        9   3s2p
 N                           3-21g                   5        9   3s2p
 H                           3-21g                   2        2   2s



 Scaling coordinates for geometry "geometry" by  1.889725989
 (inverse scale =  0.529177249)

 CS  symmetry detected

          ------
          auto-z
          ------
  no constraints, skipping     0.000000000000000     
  no constraints, skipping     0.000000000000000     
 
 
                             Geometry "geometry" -> ""
                             -------------------------
 
 Output coordinates in angstroms (scale by  1.889725989 to convert to a.u.)
 
  No.       Tag          Charge          X              Y              Z
 ---- ---------------- ---------- -------------- -------------- --------------
    1 C                    6.0000     0.01267989    -0.71370235     0.00000000
    2 N                    7.0000     0.09556644     0.75395899     0.00000000
    3 H                    1.0000    -1.03383386    -1.01851217     0.00000000
    4 H                    1.0000  max2e                        81
  mem2                     88087
     0.50520674    -1.10542989     0.88998100
    5 H                    1.0000     0.50520674    -1.10542989    -0.88998100
    6 H                    1.0000    -0.36081199     1.11693655     0.82466200
    7 H                    1.0000    -0.36081199     1.11693655    -0.82466200
 
      Atomic Mass 
      ----------- 
 
      C                 12.000000
      N                 14.003070
      H                  1.007825
 

 Effective nuclear repulsion energy (a.u.)      42.0501640369

            Nuclear Dipole moment (a.u.) 
            ----------------------------
        X                 Y               Z
 ---------------- ---------------- ----------------
    -0.0000000000     0.0000000000     0.0000000000
 
      Symmetry information
      --------------------
 
 Group name             Cs        
 Group number              2
 Group order               2
 No. of unique centers     5
 
      Symmetry unique atoms
 
     1    2    3    4    6
 


                                Z-matrix (autoz)
                                -------- 

 Units are Angstrom for bonds and degrees for angles
 
      Type          Name      I     J     K     L     M      Value
      ----------- --------  ----- ----- ----- ----- ----- ----------
    1 Stretch                  1     2                       1.47000
    2 Stretch                  1     3                       1.09000
    3 Stretch                  1     4                       1.09000
    4 Stretch                  1     5                       1.09000
    5 Stretch                  2     6                       1.01000
    6 Stretch                  2     7                       1.01000
    7 Bend                     1     2     6               109.47123
    8 Bend                     1     2     7               109.47123
    9 Bend                     2     1     3               109.47120
   10 Bend                     2     1     4               109.47121
   11 Bend                     2     1     5               109.47121
   12 Bend                     3     1     4               109.47125
   13 Bend                     3     1     5               109.47125
   14 Bend                     4     1     5               109.47122
   15 Bend                     6     2     7               109.47120
   16 Torsion                  3     1     2     6          59.99999
   17 Torsion                  3     1     2     7         -59.99999
   18 Torsion                  4     1     2     6         -60.00002
   19 Torsion                  4     1     2     7         180.00000
   20 Torsion                  5     1     2     6        -180.00000
   21 Torsion                  5     1     2     7          60.00002
 
 
            XYZ format geometry
            -------------------
     7
 geometry
 C                     0.01267989    -0.71370235     0.00000000
 N                     0.09556644     0.75395899     0.00000000
 H                    -1.03383386    -1.01851217     0.00000000
 H                     0.50520674    -1.10542989     0.88998100
 H                     0.50520674    -1.10542989    -0.88998100
 H                    -0.36081199     1.11693655     0.82466200
 H                    -0.36081199     1.11693655    -0.82466200
 
 ==============================================================================
                                internuclear distances
 ------------------------------------------------------------------------------
       center one      |      center two      | atomic units |  angstroms
 ------------------------------------------------------------------------------
    2 N                |   1 C                |     2.77790  |     1.47000
    3 H                |   1 C                |     2.05980  |     1.09000
    4 H                |   1 C                |     2.05980  |     1.09000
    5 H                |   1 C                |     2.05980  |     1.09000
    6 H                |   2 N                |     1.90862  |     1.01000
    7 H                |   2 N                |     1.90862  |     1.01000
 ------------------------------------------------------------------------------
                         number of included internuclear distances:          6
 ==============================================================================



 ==============================================================================
                                 internuclear angles
 ------------------------------------------------------------------------------
        center 1       |       center 2       |       center 3       |  degrees
 ------------------------------------------------------------------------------
    2 N                |   1 C                |   3 H                |   109.47
    2 N                |   1 C                |   4 H                |   109.47
    2 N                |   1 C                |   5 H                |   109.47
    3 H                |   1 C                |   4 H                |   109.47
    3 H                |   1 C                |   5 H                |   109.47
    4 H                |   1 C                |   5 H                |   109.47
    1 C                |   2 N                |   6 H                |   109.47
    1 C                |   2 N                |   7 H                |   109.47
    6 H                |   2 N                |   7 H                |   109.47
 ------------------------------------------------------------------------------
                            number of included internuclear angles:          9
 ==============================================================================



                                 NWChem SCF Module
                                 -----------------
 
 
              Methylamine...rhf/3-21g//Pople-Gordon standard geometry
 
 

  ao basis        = "ao basis"
  functions       =    28
  atoms           =     7
  closed shells   =     9
  open shells     =     0
  charge          =   0.00
  wavefunction    = RHF 
  input vectors   = atomic
  output vectors  = ./methylamine.movecs
  use symmetry    = F
  symmetry adapt  = F


 Summary of "ao basis" -> "ao basis" (cartesian)
 ------------------------------------------------------------------------------
       Tag                 Description            Shells   Functions and Types
 ---------------- ------------------------------  ------  ---------------------
 C                           3-21g                   5        9   3s2p
 N                           3-21g                   5        9   3s2p
 H                           3-21g                   2        2   2s


  max2e                        81
  mem2                     88087

 Forming initial guess at       0.2s

 
      Superposition of Atomic Density Guess
      -------------------------------------
 
 Sum of atomic energies:         -93.95811521
 
      Non-variational initial energy
      ------------------------------

 Total energy =     -95.105065
 1-e energy   =    -208.880078
 2-e energy   =      71.724848
 HOMO         =      -0.284461
 LUMO         =       0.165748
 

 Starting SCF solution at       0.2s



 ----------------------------------------------
         Quadratically convergent ROHF

 Convergence threshold     :          1.000E-04
 Maximum no. of iterations :           30
 Final Fock-matrix accuracy:          1.000E-07
 ----------------------------------------------


              iter       energy          gnorm     gmax       time
             ----- ------------------- --------- --------- --------
                 1      -94.6569799525  5.76D-01  1.61D-01      0.2
                 2      -94.6769419325  2.08D-01  9.60D-02      0.3
                 3      -94.6794315872  7.27D-03  4.02D-03      0.5
                 4      -94.6794442105  4.80D-05  1.69D-05      0.8


       Final RHF  results 
       ------------------ 

         Total SCF energy =    -94.679444210479
      One-electron energy =   -210.716791871595
      Two-electron energy =     73.987183624179
 Nuclear repulsion energy =     42.050164036937

        Time for solution =      0.7s


             Final eigenvalues
             -----------------

              1      
    1  -15.4458
    2  -11.1826
    3   -1.1640
    4   -0.8920
    5   -0.6590
    6   -0.5928
    7   -0.5492
    8   -0.5171
    9   -0.3687
   10    0.2663
   11    0.3293
   12    0.3359
   13    0.3571
   14    0.3821
   15    0.4500
   16    0.9476
   17    0.9779
   18    0.9873
   19    1.2592
 
                       ROHF Final Molecular Orbital Analysis
                       -------------------------------------
 
 Vector    2  Occ=2.000000D+00  E=-1.118262D+01
              MO Center=  1.3D-02, -7.1D-01, -1.6D-18, r^2= 2.8D-02
   Bfn.  Coefficient  Atom+Function         Bfn.  Coefficient  Atom+Function  
  ----- ------------  ---------------      ----- ------------  ---------------
     1      0.987262  1 C  s          
 
 Vector    3  Occ=2.000000D+00  E=-1.163995D+00
              MO Center= -6.5D-02,  4.6D-01,  5.9D-16, r^2= 9.2D-01
   Bfn.  Coefficient  Atom+Function         Bfn.  Coefficient  Atom+Function  
  ----- ------------  ---------------      ----- ------------  ---------------
    15      0.597567  2 N  s                  6      0.208632  1 C  s          
    10     -0.198832  2 N  s                 11      0.176693  2 N  s          
 
 Vector    4  Occ=2.000000D+00  E=-8.920202D-01
              MO Center= -2.6D-02, -4.5D-01,  2.1D-16, r^2= 1.7D+00
   Bfn.  Coefficient  Atom+Function         Bfn.  Coefficient  Atom+Function  
  ----- ------------  ---------------      ----- ------------  ---------------
     6      0.573813  1 C  s                 15     -0.334534  2 N  s          
     1     -0.180646  1 C  s                  2      0.174168  1 C  s          
 
 Vector    5  Occ=2.000000D+00  E=-6.589709D-01
              MO Center= -8.3D-03,  4.0D-01, -8.1D-18, r^2= 1.6D+00
   Bfn.  Coefficient  Atom+Function         Bfn.  Coefficient  Atom+Function  
  ----- ------------  ---------------      ----- ------------  ---------------
    14      0.323151  2 N  pz                18      0.278358  2 N  pz         
     5      0.203085  1 C  pz                25      0.187028  6 H  s          
    27     -0.187028  7 H  s                  9      0.172893  1 C  pz         
 
 Vector    6  Occ=2.000000D+00  E=-5.928086D-01
              MO Center= -2.2D-01, -4.4D-01,  1.4D-15, r^2= 1.5D+00
   Bfn.  Coefficient  Atom+Function         Bfn.  Coefficient  Atom+Function  
  ----- ------------  ---------------      ----- ------------  ---------------
     3      0.319344  1 C  px                 7      0.246967  1 C  px         
    19     -0.234274  3 H  s                 20     -0.215917  3 H  s          
    12      0.185946  2 N  px                16      0.183340  2 N  px         
 
 Vector    7  Occ=2.000000D+00  E=-5.492395D-01
              MO Center=  9.4D-02, -8.3D-02, -3.0D-15, r^2= 1.7D+00
   Bfn.  Coefficient  Atom+Function         Bfn.  Coefficient  Atom+Function  
  ----- ------------  ---------------      ----- ------------  ---------------
    17     -0.319281  2 N  py                13     -0.317659  2 N  py         
     4      0.304842  1 C  py                 8      0.217707  1 C  py         
 
 Vector    8  Occ=2.000000D+00  E=-5.170762D-01
              MO Center=  1.5D-01, -3.9D-01,  1.5D-15, r^2= 2.0D+00
   Bfn.  Coefficient  Atom+Function         Bfn.  Coefficient  Atom+Function  
  ----- ------------  ---------------      ----- ------------  ---------------
     5      0.325108  1 C  pz                 9      0.275670  1 C  pz         
    14     -0.205748  2 N  pz                18     -0.205257  2 N  pz         
    21      0.201916  4 H  s                 23     -0.201916  5 H  s          
    22      0.194877  4 H  s                 24     -0.194877  5 H  s          
 
 Vector    9  Occ=2.000000D+00  E=-3.687330D-01
              MO Center=  1.4D-01,  5.1D-01, -5.9D-15, r^2= 1.4D+00
   Bfn.  Coefficient  Atom+Function         Bfn.  Coefficient  Atom+Function  
  ----- ------------  ---------------      ----- ------------  ---------------
    16      0.553776  2 N  px                12      0.419754  2 N  px         
    15      0.262843  2 N  s                 20      0.210201  3 H  s          
    17      0.173527  2 N  py         
 
 Vector   10  Occ=0.000000D+00  E= 2.663262D-01
              MO Center= -3.4D-01,  2.5D-01,  1.8D-13, r^2= 3.7D+00
   Bfn.  Coefficient  Atom+Function         Bfn.  Coefficient  Atom+Function  
  ----- ------------  ---------------      ----- ------------  ---------------
     6      1.174255  1 C  s                 15      1.178750  2 N  s          
    26     -0.743073  6 H  s                 28     -0.743073  7 H  s          
    20     -0.735768  3 H  s                  8     -0.577179  1 C  py         
    22     -0.572895  4 H  s                 24     -0.572895  5 H  s          
    16     -0.315756  2 N  px                17      0.162546  2 N  py         
 
 Vector   11  Occ=0.000000D+00  E= 3.293298D-01
              MO Center=  2.7D-02, -4.3D-01,  7.4D-13, r^2= 4.3D+00
   Bfn.  Coefficient  Atom+Function         Bfn.  Coefficient  Atom+Function  
  ----- ------------  ---------------      ----- ------------  ---------------
     6      2.025203  1 C  s                 15     -1.039044  2 N  s          
    22     -1.042909  4 H  s                 24     -1.042909  5 H  s          
    20     -0.708402  3 H  s                 26      0.607270  6 H  s          
    28      0.607270  7 H  s                 16      0.236634  2 N  px         
     8     -0.208516  1 C  py                 7      0.162993  1 C  px         
 
 Vector   12  Occ=0.000000D+00  E= 3.359297D-01
              MO Center=  2.4D-01, -3.9D-01, -3.1D-13, r^2= 3.9D+00
   Bfn.  Coefficient  Atom+Function         Bfn.  Coefficient  Atom+Function  
  ----- ------------  ---------------      ----- ------------  ---------------
    22     -1.231543  4 H  s                 24      1.231543  5 H  s          
     9      1.165735  1 C  pz                26     -0.711954  6 H  s          
    28      0.711954  7 H  s                 18      0.408872  2 N  pz         
     5      0.253926  1 C  pz         
 
 Vector   13  Occ=0.000000D+00  E= 3.570777D-01
              MO Center= -5.8D-01, -9.8D-01, -2.2D-13, r^2= 2.6D+00
   Bfn.  Coefficient  Atom+Function         Bfn.  Coefficient  Atom+Function  
  ----- ------------  ---------------      ----- ------------  ---------------
    20      1.779084  3 H  s                  7      1.433511  1 C  px         
    22     -0.775480  4 H  s                 24     -0.775480  5 H  s          
     3      0.307298  1 C  px                16     -0.284786  2 N  px         
     6     -0.266419  1 C  s                 15      0.245125  2 N  s          
     8     -0.198210  1 C  py         
 
 Vector   14  Occ=0.000000D+00  E= 3.821131D-01
              MO Center= -1.9D-01,  4.4D-01, -3.7D-13, r^2= 3.7D+00
   Bfn.  Coefficient  Atom+Function         Bfn.  Coefficient  Atom+Function  
  ----- ------------  ---------------      ----- ------------  ---------------
    26      1.058718  6 H  s                 28     -1.058718  7 H  s          
    18     -0.955791  2 N  pz                 9      0.903276  1 C  pz         
    22     -0.852884  4 H  s                 24      0.852884  5 H  s          
    14     -0.261729  2 N  pz         
 
 Vector   15  Occ=0.000000D+00  E= 4.500279D-01
              MO Center=  5.5D-03, -2.6D-01, -5.6D-17, r^2= 2.5D+00
   Bfn.  Coefficient  Atom+Function         Bfn.  Coefficient  Atom+Function  
  ----- ------------  ---------------      ----- ------------  ---------------
     8      1.457901  1 C  py                17      1.198682  2 N  py         
     6      0.952927  1 C  s                 15     -0.655987  2 N  s          
    26     -0.513206  6 H  s                 28     -0.513206  7 H  s          
    13      0.308116  2 N  py                 7      0.216126  1 C  px         
     4      0.206107  1 C  py                16     -0.196580  2 N  px         
 
 Vector   16  Occ=0.000000D+00  E= 9.475548D-01
              MO Center= -7.2D-02, -4.8D-01,  1.3D-15, r^2= 2.1D+00
   Bfn.  Coefficient  Atom+Function         Bfn.  Coefficient  Atom+Function  
  ----- ------------  ---------------      ----- ------------  ---------------
     9      1.191373  1 C  pz                 5     -0.669229  1 C  pz         
    21     -0.530542  4 H  s                 23      0.530542  5 H  s          
    25     -0.316782  6 H  s                 27      0.316782  7 H  s          
 
 Vector   17  Occ=0.000000D+00  E= 9.778731D-01
              MO Center=  1.0D-01, -6.4D-01,  1.7D-15, r^2= 1.9D+00
   Bfn.  Coefficient  Atom+Function         Bfn.  Coefficient  Atom+Function  
  ----- ------------  ---------------      ----- ------------  ---------------
     7      1.237781  1 C  px                 3     -0.643199  1 C  px         
    19      0.645234  3 H  s                  8      0.533175  1 C  py         
     4     -0.446725  1 C  py                15     -0.290395  2 N  s          
    21     -0.182479  4 H  s                 23     -0.182479  5 H  s          
    25      0.174575  6 H  s                 27      0.174575  7 H  s          
 
 Vector   18  Occ=0.000000D+00  E= 9.873209D-01
              MO Center=  3.1D-02, -7.9D-01,  4.4D-15, r^2= 1.5D+00
   Bfn.  Coefficient  Atom+Function         Bfn.  Coefficient  Atom+Function  
  ----- ------------  ---------------      ----- ------------  ---------------
     8      1.153521  1 C  py                 4     -0.944235  1 C  py         
     7     -0.683281  1 C  px                   max2e                        81
  mem2                     88087
3      0.318729  1 C  px         
    15     -0.319231  2 N  s                 21      0.309584  4 H  s          
    23      0.309584  5 H  s          
 
 Vector   19  Occ=0.000000D+00  E= 1.259218D+00
              MO Center=  4.7D-02, -3.2D-02, -2.3D-13, r^2= 2.7D+00
   Bfn.  Coefficient  Atom+Function         Bfn.  Coefficient  Atom+Function  
  ----- ------------  ---------------      ----- ------------  ---------------
     9      1.512384  1 C  pz                22     -0.945063  4 H  s          
    24      0.945063  5 H  s                  5     -0.815072  1 C  pz         
    25      0.672610  6 H  s                 27     -0.672610  7 H  s          
    18     -0.661805  2 N  pz                26     -0.459388  6 H  s          
    28      0.459388  7 H  s                 21      0.305528  4 H  s          
 

 center of mass
 --------------
 x =   0.04501831 y =   0.06026873 z =   0.00000000

 moments of inertia (a.u.)
 ------------------
          82.246842122762           0.000000000000           0.000000000000
           0.000000000000          17.618037357918           0.000000000000
           0.000000000000           0.000000000000          78.671997791295
 
  Mulliken analysis of the total density
  --------------------------------------

    Atom       Charge   Shell Charges
 -----------   ------   -------------------------------------------------------
    1 C    6     6.39   1.99  0.36  1.59  1.06  1.39
    2 N    7     7.77   1.99  0.36  1.82  1.35  2.26
    3 H    1     0.83   0.48  0.35
    4 H    1     0.79   0.48  0.32
    5 H    1     0.79   0.48  0.32
    6 H    1     0.71   0.46  0.25
    7 H    1     0.71   0.46  0.25
 
       Multipole analysis of the density wrt the origin
       ------------------------------------------------
 
     L   x y z        total         open         nuclear
     -   - - -        -----         ----         -------
     0   0 0 0     -0.000000      0.000000     18.000000
 
     1   1 0 0     -0.651578      0.000000     -0.000000
     1   0 1 0     -0.200840      0.000000      0.000000
     1   0 0 1      0.000000      0.000000      0.000000
 
     2   2 0 0    -11.194057      0.000000      6.801256
     2   1 1 0     -1.753103      0.000000     -1.499500
     2   1 0 1      0.000000      0.000000      0.000000
     2   0 2 0    -10.386892      0.000000     46.466037
     2   0 1 1     -0.000000      0.000000      0.000000
     2   0 0 2     -9.210443      0.000000     10.514167
 

 Task  times  cpu:        0.8s     wall:        0.8s
 
 
                                NWChem Input Module
                                -------------------
 
 
                              NWChem Property Module
                              ----------------------
 
 
              Methylamine...rhf/3-21g//Pople-Gordon standard geometry
 
                                 NWChem SCF Module
                                 -----------------
 
 
              Methylamine...rhf/3-21g//Pople-Gordon standard geometry
 
 

  ao basis        = "ao basis"
  functions       =    28
  atoms           =     7
  closed shells   =     9
  open shells     =     0
  charge          =   0.00
  wavefunction    = RHF 
  input vectors   = ./methylamine.movecs
  output vectors  = ./methylamine.movecs
  use symmetry    = F
  symmetry adapt  = F


 Summary of "ao basis" -> "ao basis" (cartesian)
 ------------------------------------------------------------------------------
       Tag                 Description            Shells   Functions and Types
 ---------------- ------------------------------  ------  ---------------------
 C                           3-21g                   5        9   3s2p
 N                           3-21g                   5        9   3s2p
 H                           3-21g                   2        2   2s


  max2e                        81
  mem2                     88087

 Forming initial guess at       1.0s


 Loading old vectors from job with title :

Methylamine...rhf/3-21g//Pople-Gordon standard geometry


 Starting SCF solution at       1.0s



 ----------------------------------------------
         Quadratically convergent ROHF

 Convergence threshold     :          1.000E-04
 Maximum no. of iterations :           30
 Final Fock-matrix accuracy:          1.000E-07
 ----------------------------------------------


              iter       energy          gnorm     gmax       time
             ----- ------------------- --------- --------- --------
                 1      -94.6794442105  4.80D-05  1.58D-05      1.0


       Final RHF  results 
       ------------------ 

         Total SCF energy =    -94.679444210479
      One-electron energy =   -210.716791871595
      Two-electron energy =     73.987183624179
 Nuclear repulsion energy =     42.050164036937

        Time for solution =      0.1s


             Final eigenvalues
             -----------------

              1      
    1  -15.4458
    2  -11.1826
    3   -1.1640
    4   -0.8920
    5   -0.6590
    6   -0.5928
    7   -0.5492
    8   -0.5171
    9   -0.3687
   10    0.2663
   11    0.3293
   12    0.3359
   13    0.3571
   14    0.3821
   15    0.4500
   16    0.9476
   17    0.9779
   18    0.9873
   19    1.2592
 
                       ROHF Final Molecular Orbital Analysis
                       -------------------------------------
 
 Vector    2  Occ=2.000000D+00  E=-1.118262D+01
              MO Center=  1.3D-02, -7.1D-01, -1.8D-18, r^2= 2.8D-02
   Bfn.  Coefficient  Atom+Function         Bfn.  Coefficient  Atom+Function  
  ----- ------------  ---------------      ----- ------------  ---------------
     1      0.987262  1 C  s          
 
 Vector    3  Occ=2.000000D+00  E=-1.163995D+00
              MO Center= -6.5D-02,  4.6D-01, -2.3D-16, r^2= 9.2D-01
   Bfn.  Coefficient  Atom+Function         Bfn.  Coefficient  Atom+Function  
  ----- ------------  ---------------      ----- ------------  ---------------
    15      0.597567  2 N  s                  6      0.208632  1 C  s          
    10     -0.198832  2 N  s                 11      0.176693  2 N  s          
 
 Vector    4  Occ=2.000000D+00  E=-8.920202D-01
              MO Center= -2.6D-02, -4.5D-01,  1.1D-15, r^2= 1.7D+00
   Bfn.  Coefficient  Atom+Function         Bfn.  Coefficient  Atom+Function  
  ----- ------------  ---------------      ----- ------------  ---------------
     6      0.573813  1 C  s                 15     -0.334534  2 N  s          
     1     -0.180646  1 C  s                  2      0.174168  1 C  s          
 
 Vector    5  Occ=2.000000D+00  E=-6.589709D-01
              MO Center= -8.3D-03,  4.0D-01, -4.9D-18, r^2= 1.6D+00
   Bfn.  Coefficient  Atom+Function         Bfn.  Coefficient  Atom+Function  
  ----- ------------  ---------------      ----- ------------  ---------------
    14      0.323151  2 N  pz                18      0.278358  2 N  pz         
     5      0.203085  1 C  pz                25      0.187028  6 H  s          
    27     -0.187028  7 H  s                  9      0.172893  1 C  pz         
 
 Vector    6  Occ=2.000000D+00  E=-5.928086D-01
              MO Center= -2.2D-01, -4.4D-01,  5.8D-16, r^2= 1.5D+00
   Bfn.  Coefficient  Atom+Function         Bfn.  Coefficient  Atom+Function  
  ----- ------------  ---------------      ----- ------------  ---------------
     3      0.319344  1 C  px                 7      0.246967  1 C  px         
    19     -0.234274  3 H  s                 20     -0.215917  3 H  s          
    12      0.185946  2 N  px                16      0.183340  2 N  px         
 
 Vector    7  Occ=2.000000D+00  E=-5.492395D-01
              MO Center=  9.4D-02, -8.3D-02,  2.8D-15, r^2= 1.7D+00
   Bfn.  Coefficient  Atom+Function         Bfn.  Coefficient  Atom+Function  
  ----- ------------  ---------------      ----- ------------  ---------------
    17     -0.319281  2 N  py                13     -0.317659  2 N  py         
     4      0.304842  1 C  py                 8      0.217707  1 C  py         
 
 Vector    8  Occ=2.000000D+00  E=-5.170762D-01
              MO Center=  1.5D-01, -3.9D-01, -3.7D-15, r^2= 2.0D+00
   Bfn.  Coefficient  Atom+Function         Bfn.  Coefficient  Atom+Function  
  ----- ------------  ---------------      ----- ------------  ---------------
     5      0.325108  1 C  pz                 9      0.275670  1 C  pz         
    14     -0.205748  2 N  pz                18     -0.205257  2 N  pz         
    21      0.201916  4 H  s                 23     -0.201916  5 H  s          
    22      0.194877  4 H  s                 24     -0.194877  5 H  s          
 
 Vector    9  Occ=2.000000D+00  E=-3.687330D-01
              MO Center=  1.4D-01,  5.1D-01, -5.5D-15, r^2= 1.4D+00
   Bfn.  Coefficient  Atom+Function         Bfn.  Coefficient  Atom+Function  
  ----- ------------  ---------------      ----- ------------  ---------------
    16      0.553776  2 N  px                12      0.419754  2 N  px         
    15      0.262843  2 N  s                 20      0.210201  3 H  s          
    17      0.173527  2 N  py         
 
 Vector   10  Occ=0.000000D+00  E= 2.663262D-01
              MO Center= -3.4D-01,  2.5D-01,  1.3D-13, r^2= 3.7D+00
   Bfn.  Coefficient  Atom+Function         Bfn.  Coefficient  Atom+Function  
  ----- ------------  ---------------      ----- ------------  ---------------
     6      1.174255  1 C  s                 15      1.178750  2 N  s          
    26     -0.743073  6 H  s                 28     -0.743073  7 H  s          
    20     -0.735768  3 H  s                  8     -0.577179  1 C  py         
    22     -0.572895  4 H  s                 24     -0.572895  5 H  s          
    16     -0.315756  2 N  px                17      0.162546  2 N  py         
 
 Vector   11  Occ=0.000000D+00  E= 3.293298D-01
              MO Center=  2.7D-02, -4.3D-01,  4.3D-13, r^2= 4.3D+00
   Bfn.  Coefficient  Atom+Function         Bfn.  Coefficient  Atom+Function  
  ----- ------------  ---------------      ----- ------------  ---------------
     6      2.025203  1 C  s                 15     -1.039044  2 N  s          
    22     -1.042909  4 H  s                 24     -1.042909  5 H  s          
    20     -0.708402  3 H  s                 26      0.607270  6 H  s          
    28      0.607270  7 H  s                 16      0.236634  2 N  px         
     8     -0.208516  1 C  py                 7      0.162993  1 C  px         
 
 Vector   12  Occ=0.000000D+00  E= 3.359297D-01
              MO Center=  2.4D-01, -3.9D-01,  1.2D-13, r^2= 3.9D+00
   Bfn.  Coefficient  Atom+Function         Bfn.  Coefficient  Atom+Function  
  ----- ------------  ---------------      ----- ------------  ---------------
    22     -1.231543  4 H  s                 24      1.231543  5 H  s          
     9      1.165735  1 C  pz                26     -0.711954  6 H  s          
    28      0.711954  7 H  s                 18      0.408872  2 N  pz         
     5      0.253926  1 C  pz         
 
 Vector   13  Occ=0.000000D+00  E= 3.570777D-01
              MO Center= -5.8D-01, -9.8D-01, -3.0D-13, r^2= 2.6D+00
   Bfn.  Coefficient  Atom+Function         Bfn.  Coefficient  Atom+Function  
  ----- ------------  ---------------      ----- ------------  ---------------
    20      1.779084  3 H  s                  7      1.433511  1 C  px         
    22     -0.775480  4 H  s                 24     -0.775480  5 H  s          
     3      0.307298  1 C  px                16     -0.284786  2 N  px         
     6     -0.266419  1 C  s                 15      0.245125  2 N  s          
     8     -0.198210  1 C  py         
 
 Vector   14  Occ=0.000000D+00  E= 3.821131D-01
              MO Center= -1.9D-01,  4.4D-01, -3.7D-13, r^2= 3.7D+00
   Bfn.  Coefficient  Atom+Function         Bfn.  Coefficient  Atom+Function  
  ----- ------------  ---------------      ----- ------------  ---------------
    26      1.058718  6 H  s                 28     -1.058718  7 H  s          
    18     -0.955791  2 N  pz                 9      0.903276  1 C  pz         
    22     -0.852884  4 H  s                 24      0.852884  5 H  s          
    14     -0.261729  2 N  pz         
 
 Vector   15  Occ=0.000000D+00  E= 4.500279D-01
              MO Center=  5.5D-03, -2.6D-01,  5.7D-15, r^2= 2.5D+00
   Bfn.  Coefficient  Atom+Function         Bfn.  Coefficient  Atom+Function  
  ----- ------------  ---------------      ----- ------------  ---------------
     8      1.457901  1 C  py                17      1.198682  2 N  py         
     6      0.952927  1 C  s                 15     -0.655987  2 N  s          
    26     -0.513206  6 H  s                 28     -0.513206  7 H  s          
    13      0.308116  2 N  py                 7      0.216126  1 C  px         
     4      0.206107  1 C  py                16     -0.196580  2 N  px         
 
 Vector   16  Occ=0.000000D+00  E= 9.475548D-01
              MO Center= -7.2D-02, -4.8D-01, -6.3D-16, r^2= 2.1D+00
   Bfn.  Coefficient  Atom+Function         Bfn.  Coefficient  Atom+Function  
  ----- ------------  ---------------      ----- ------------  ---------------
     9      1.191373  1 C  pz                 5     -0.669229  1 C  pz         
    21     -0.530542  4 H  s                 23      0.530542  5 H  s          
    25     -0.316782  6 H  s                 27      0.316782  7 H  s          
 
 Vector   17  Occ=0.000000D+00  E= 9.778731D-01
              MO Center=  1.0D-01, -6.4D-01,  4.1D-15, r^2= 1.9D+00
   Bfn.  Coefficient  Atom+Function         Bfn.  Coefficient  Atom+Function  
  ----- ------------  ---------------      ----- ------------  ---------------
     7      1.237781  1 C  px                 3     -0.643199  1 C  px         
    19      0.645234  3 H  s                  8      0.533175  1 C  py         
     4     -0.446725  1 C  py                15     -0.290395  2 N  s          
    21     -0.182479  4 H  s                 23     -0.182479  5 H  s          
    25      0.174575  6 H  s                 27      0.174575  7 H  s          
 
 Vector   18  Occ=0.000000D+00  E= 9.873209D-01
              MO Center=  3.1D-02, -7.9D-01,  4.3D-15, r^2= 1.5D+00
   Bfn.  Coefficient  Atom+Function         Bfn.  Coefficient  Atom+Function  
  ----- ------------  ---------------      ----- ------------  ---------------
     8      1.153521  1 C  py                 4     -0.944235  1 C  py         
     7     -0.683281  1 C  px                 3      0.318729  1 C  px         
    15     -0.319231  2 N  s                 21      0.309584  4 H  s          
    23      0.309584  5 H  s          
 
 Vector   19  Occ=0.000000D+00  E= 1.259218D+00
              MO Center=  4.7D-02, -3.2D-02, -3.4D-13, r^2= 2.7D+00
   Bfn.  Coefficient  Atom+Function         Bfn.  Coefficient  Atom+Function  
  ----- ------------  ---------------      ----- ------------  ---------------
     9      1.512384  1 C  pz                22     -0.945063  4 H  s          
    24      0.945063  5 H  s                  5     -0.815072  1 C  pz         
    25      0.672610  6 H  s                 27     -0.672610  7 H  s          
    18     -0.661805  2 N  pz                26     -0.459388  6 H  s          
    28      0.459388  7 H  s                 21      0.305528  4 H  s          
 

 center of mass
 --------------
 x =   0.04501831 y =   0.06026873 z =   0.00000000

 moments of inertia (a.u.)
 ------------------
          82.246842122762           0.000000000000           0.000000000000
           0.000000000000          17.618037357918           0.000000000000
           0.000000000000           0.000000000000          78.671997791295
 
  Mulliken analysis of the total density
  --------------------------------------

    Atom       Charge   Shell Charges
 -----------   ------   -------------------------------------------------------
    1 C    6     6.39   1.99  0.36  1.59  1.06  1.39
    2 N    7     7.77   1.99  0.36  1.82  1.35  2.26
    3 H    1     0.83   0.48  0.35
    4 H    1     0.79   0.48  0.32
    5 H    1     0.79   0.48  0.32
    6 H    1     0.71   0.46  0.25
    7 H    1     0.71   0.46  0.25
 
       Multipole analysis of the density wrt the origin
       ------------------------------------------------
 
     L   x y z        total         open         nuclear
     -   - - -        -----         ----         -------
     0   0 0 0     -0.000000      0.000000     18.000000
 
     1   1 0 0     -0.651578      0.000000     -0.000000
     1   0 1 0     -0.200840      0.000000      0.000000
     1   0 0 1      0.000000      0.000000      0.000000
 
     2   2 0 0    -11.194057      0.000000      6.801256
     2   1 1 0     -1.753103      0.000000     -1.499500
     2   1 0 1      0.000000      0.000000      0.000000
     2   0 2 0    -10.386892      0.000000     46.466037
     2   0 1 1     -0.000000      0.000000      0.000000
     2   0 0 2     -9.210443      0.000000     10.514167
 

 Input for gennbo program written to file ./methylamine.gen.
 Reading MOs from: 
 ./methylamine.movecs                                                                                                                                                                                                                                           

 Task  times  cpu:        0.2s     wall:        0.2s
 
 
                                NWChem Input Module
                                -------------------
 
 
 Summary of allocated global arrays
-----------------------------------
  No active global arrays


MA_summarize_allocated_blocks: starting scan ...
MA_summarize_allocated_blocks: scan completed: 0 heap blocks, 0 stack blocks
MA usage statistics:

	allocation statistics:
					      heap	     stack
					      ----	     -----
	current number of blocks	         0	         0
	maximum number of blocks	        17	        15
	current total bytes		         0	         0
	maximum total bytes		     80152	  22509800
	maximum total K-bytes		        81	     22510
	maximum total M-bytes		         1	        23
 
 
                                     CITATION
                                     --------
                Please cite the following reference when publishing
                           results obtained with NWChem:
 
          E. Apra, E. J. Bylaska, W. A. de Jong, N. Govind, K. Kowalski,
       T. P. Straatsma, M. Valiev, H. J. J. van Dam, Y. Alexeev, J. Anchell,
       V. Anisimov, F. W. Aquino, R. Atta-Fynn, J. Autschbach, N. P. Bauman,
     J. C. Becca, D. E. Bernholdt, K. Bhaskaran-Nair, S. Bogatko, P. Borowski,
         J. Boschen, J. Brabec, A. Bruner, E. Cauet, Y. Chen, G. N. Chuev,
      C. J. Cramer, J. Daily, M. J. O. Deegan, T. H. Dunning Jr., M. Dupuis,
   K. G. Dyall, G. I. Fann, S. A. Fischer, A. Fonari, H. Fruchtl, L. Gagliardi,
      J. Garza, N. Gawande, S. Ghosh, K. Glaesemann, A. W. Gotz, J. Hammond,
       V. Helms, E. D. Hermes, K. Hirao, S. Hirata, M. Jacquelin, L. Jensen,
   B. G. Johnson, H. Jonsson, R. A. Kendall, M. Klemm, R. Kobayashi, V. Konkov,
      S. Krishnamoorthy, M. Krishnan, Z. Lin, R. D. Lins, R. J. Littlefield,
      A. J. Logsdail, K. Lopata, W. Ma, A. V. Marenich, J. Martin del Campo,
   D. Mejia-Rodriguez, J. E. Moore, J. M. Mullin, T. Nakajima, D. R. Nascimento,
    J. A. Nichols, P. J. Nichols, J. Nieplocha, A. Otero-de-la-Roza, B. Palmer,
    A. Panyala, T. Pirojsirikul, B. Peng, R. Peverati, J. Pittner, L. Pollack,
   R. M. Richard, P. Sadayappan, G. C. Schatz, W. A. Shelton, D. W. Silverstein,
   D. M. A. Smith, T. A. Soares, D. Song, M. Swart, H. L. Taylor, G. S. Thomas,
            V. Tipparaju, D. G. Truhlar, K. Tsemekhman, T. Van Voorhis,
      A. Vazquez-Mayagoitia, P. Verma, O. Villa, A. Vishnu, K. D. Vogiatzis,
        D. Wang, J. H. Weare, M. J. Williamson, T. L. Windus, K. Wolinski,
        A. T. Wong, Q. Wu, C. Yang, Q. Yu, M. Zacharias, Z. Zhang, Y. Zhao,
                                and R. J. Harrison
                        "NWChem: Past, present, and future
                         J. Chem. Phys. 152, 184102 (2020)
                               doi:10.1063/5.0004997
 
                                      AUTHORS
                                      -------
  E. Apra, E. J. Bylaska, N. Govind, K. Kowalski, M. Valiev, D. Mejia-Rodriguez,
       A. Kunitsa, N. P. Bauman, A. Panyala, W. A. de Jong, T. P. Straatsma,
   H. J. J. van Dam, D. Wang, T. L. Windus, J. Hammond, J. Autschbach, A. Woods,
    K. Bhaskaran-Nair, J. Brabec, K. Lopata, S. A. Fischer, S. Krishnamoorthy,
     M. Jacquelin, W. Ma, M. Klemm, O. Villa, Y. Chen, V. Anisimov, F. Aquino,
     S. Hirata, M. T. Hackler, E. Hermes, L. Jensen, J. E. Moore, J. C. Becca,
      V. Konjkov, T. Risthaus, M. Malagoli, A. Marenich, A. Otero-de-la-Roza,
        J. Mullin, P. Nichols, R. Peverati, J. Pittner, Y. Zhao, P.-D. Fan,
        A. Fonari, M. J. Williamson, R. J. Harrison, J. R. Rehr, M. Dupuis,
     D. Silverstein, D. M. A. Smith, J. Nieplocha, V. Tipparaju, M. Krishnan,
     B. E. Van Kuiken, A. Vazquez-Mayagoitia, M. Swart, Q. Wu, T. Van Voorhis,
     A. A. Auer, M. Nooijen, L. D. Crosby, E. Brown, G. Cisneros, G. I. Fann,
   H. Fruchtl, J. Garza, K. Hirao, R. A. Kendall, J. A. Nichols, K. Tsemekhman,
    K. Wolinski, J. Anchell, D. E. Bernholdt, P. Borowski, T. Clark, D. Clerc,
   H. Dachsel, M. J. O. Deegan, K. Dyall, D. Elwood, E. Glendening, M. Gutowski,
   A. C. Hess, J. Jaffe, B. G. Johnson, J. Ju, R. Kobayashi, R. Kutteh, Z. Lin,
   R. Littlefield, X. Long, B. Meng, T. Nakajima, S. Niu, L. Pollack, M. Rosing,
   K. Glaesemann, G. Sandrone, M. Stave, H. Taylor, G. Thomas, J. H. van Lenthe,
                               A. T. Wong, Z. Zhang.

 Total times  cpu:        1.0s     wall:        1.1s
