 argument  1 = cosmo_h3co_ecp.nw



============================== echo of input deck ==============================
echo

start h3co_dat

geometry
    o      0.00000000     0.00000000     0.27851507
    c      0.00000000     0.00000000     1.63192657
    h      0.26167571    -0.97658705     2.06772417
    h     -0.97658705     0.26167571     2.06772417
    h      0.71491134     0.71491134     2.06772417
end
charge -1

basis
  h library 6-31g*
  c library "Stuttgart RLC ECP"
  o library "Stuttgart RLC ECP"
end

ecp
  c library "Stuttgart RLC ECP"
  o library "Stuttgart RLC ECP"
end

cosmo
  minbem 2
  maxbem 4
  # ifscrn 1: do not correct the total surface charge
  #           this improves the convergence of the geometry
  #           optimization significantly
  #ifscrn 1
end

task scf optimize
================================================================================


                                         
                                         


              Northwest Computational Chemistry Package (NWChem) 6.8
              ------------------------------------------------------


                    Environmental Molecular Sciences Laboratory
                       Pacific Northwest National Laboratory
                                Richland, WA 99352

                              Copyright (c) 1994-2017
                       Pacific Northwest National Laboratory
                            Battelle Memorial Institute

             NWChem is an open-source computational chemistry package
                        distributed under the terms of the
                      Educational Community License (ECL) 2.0
             A copy of the license is included with this distribution
                              in the LICENSE.TXT file

                                  ACKNOWLEDGMENT
                                  --------------

            This software and its documentation were developed at the
            EMSL at Pacific Northwest National Laboratory, a multiprogram
            national laboratory, operated for the U.S. Department of Energy
            by Battelle under Contract Number DE-AC05-76RL01830. Support
            for this work was provided by the Department of Energy Office
            of Biological and Environmental Research, Office of Basic
            Energy Sciences, and the Office of Advanced Scientific Computing.


           Job information
           ---------------

    hostname        = kohn
    program         = ../../../bin/LINUX64/nwchem
    date            = Wed Sep 13 22:52:19 2017

    compiled        = Wed_Sep_13_21:39:26_2017
    source          = /home/niri/nwchem/nwchem-6.8
    nwchem branch   = 6.8
    nwchem revision = 29444
    ga revision     = N/A
    input           = cosmo_h3co_ecp.nw
    prefix          = h3co_dat.
    data base       = ./h3co_dat.db
    status          = startup
    nproc           =        4
    time left       =     -1s



           Memory information
           ------------------

    heap     =   13107200 doubles =    100.0 Mbytes
    stack    =   13107197 doubles =    100.0 Mbytes
    global   =   26214400 doubles =    200.0 Mbytes (distinct from heap & stack)
    total    =   52428797 doubles =    400.0 Mbytes
    verify   = yes
    hardfail = no 


           Directory information
           ---------------------

  0 permanent = .
  0 scratch   = .




                                NWChem Input Module
                                -------------------



 Scaling coordinates for geometry "geometry" by  1.889725989
 (inverse scale =  0.529177249)

 C3V symmetry detected

          ------
          auto-z
          ------
  Looking for out-of-plane bends


                             Geometry "geometry" -> ""
                             -------------------------

 Output coordinates in angstroms (scale by  1.889725989 to convert to a.u.)

  No.       Tag          Charge          X              Y              Z
 ---- ---------------- ---------- -------------- -------------- --------------
    1 o                    8.0000    -0.00000000    -0.00000000    -0.79341743
    2 c                    6.0000     0.00000000     0.00000000     0.55999407
    3 h                    1.0000     0.71491134     0.71491134     0.99579167
    4 h                    1.0000     0.26167571    -0.97658705     0.99579167
    5 h                    1.0000    -0.97658705     0.26167571     0.99579167

      Atomic Mass 
      ----------- 

      o                 15.994910
      c                 12.000000
      h                  1.007825


 Effective nuclear repulsion energy (a.u.)      34.5058725513

            Nuclear Dipole moment (a.u.) 
            ----------------------------
        X                 Y               Z
 ---------------- ---------------- ----------------
     0.0000000000    -0.0000000000     0.0000000000

      Symmetry information
      --------------------

 Group name             C3v       
 Group number             17
 Group order               6
 No. of unique centers     3

      Symmetry unique atoms

     1    2    3



                                Z-matrix (autoz)
                                -------- 

 Units are Angstrom for bonds and degrees for angles

      Type          Name      I     J     K     L     M      Value
      ----------- --------  ----- ----- ----- ----- ----- ----------
    1 Stretch                  1     2                       1.35341
    2 Stretch                  2     3                       1.10096
    3 Stretch                  2     4                       1.10096
    4 Stretch                  2     5                       1.10096
    5 Bend                     1     2     3               113.31798
    6 Bend                     1     2     4               113.31798
    7 Bend                     1     2     5               113.31798
    8 Bend                     3     2     4               105.36538
    9 Bend                     3     2     5               105.36538
   10 Bend                     4     2     5               105.36538


            XYZ format geometry
            -------------------
     5
 geometry
 o                    -0.00000000    -0.00000000    -0.79341743
 c                     0.00000000     0.00000000     0.55999407
 h                     0.71491134     0.71491134     0.99579167
 h                     0.26167571    -0.97658705     0.99579167
 h                    -0.97658705     0.26167571     0.99579167

 ==============================================================================
                                internuclear distances
 ------------------------------------------------------------------------------
       center one      |      center two      | atomic units |  angstroms
 ------------------------------------------------------------------------------
    2 c                |   1 o                |     2.55758  |     1.35341
    3 h                |   2 c                |     2.08052  |     1.10096
    4 h                |   2 c                |     2.08052  |     1.10096
    5 h                |   2 c                |     2.08052  |     1.10096
 ------------------------------------------------------------------------------
                         number of included internuclear distances:          4
 ==============================================================================



 ==============================================================================
                                 internuclear angles
 ------------------------------------------------------------------------------
        center 1       |       center 2       |       center 3       |  degrees
 ------------------------------------------------------------------------------
    1 o                |   2 c                |   3 h                |   113.32
    1 o                |   2 c                |   4 h                |   113.32
    1 o                |   2 c                |   5 h                |   113.32
    3 h                |   2 c                |   4 h                |   105.37
    3 h                |   2 c                |   5 h                |   105.37
    4 h                |   2 c                |   5 h                |   105.37
 ------------------------------------------------------------------------------
                            number of included internuclear angles:          6
 ==============================================================================



  library name resolved from: environment
  library file name is: </home/niri/nwchem/nwchem-6.8/src/basis/libraries/>
  
                      Basis "ao basis" -> "" (cartesian)
                      -----
  h (Hydrogen)
  ------------
            Exponent  Coefficients 
       -------------- ---------------------------------------------------------
  1 S  1.87311370E+01  0.033495
  1 S  2.82539370E+00  0.234727
  1 S  6.40121700E-01  0.813757

  2 S  1.61277800E-01  1.000000

  c (Carbon)
  ----------
            Exponent  Coefficients 
       -------------- ---------------------------------------------------------
  1 S  2.26310100E+00  0.496548
  1 S  1.77318600E+00 -0.422391
  1 S  4.08619000E-01 -0.599356

  2 S  1.39175000E-01  1.000000

  3 P  8.38302500E+00 -0.038544
  3 P  1.99313200E+00 -0.203185
  3 P  5.59543000E-01 -0.498176

  4 P  1.56126000E-01  1.000000

  o (Oxygen)
  ----------
            Exponent  Coefficients 
       -------------- ---------------------------------------------------------
  1 S  4.71055180E+01 -0.014408
  1 S  5.91134600E+00  0.129568
  1 S  9.76483000E-01 -0.563118

  2 S  2.96070000E-01  1.000000

  3 P  1.66922190E+01  0.044856
  3 P  3.90070200E+00  0.222613
  3 P  1.07825300E+00  0.500188

  4 P  2.84189000E-01  1.000000

  5 P  7.02000000E-02  1.000000



 Summary of "ao basis" -> "" (cartesian)
 ------------------------------------------------------------------------------
       Tag                 Description            Shells   Functions and Types
 ---------------- ------------------------------  ------  ---------------------
 h                           6-31g*                  2        2   2s
 c                     Stuttgart RLC ECP             4        8   2s2p
 o                     Stuttgart RLC ECP             5       11   2s3p


  library name resolved from: environment
  library file name is: </home/niri/nwchem/nwchem-6.8/src/basis/libraries/>
  

 **** WARNING Zero Coefficient **** on atom "               c"
 angular momentum value:-1  standard basis set name: "Stuttgart RLC ECP"
 input line that generated warning:
  1497: 2      1.000000000            0.000000000
  
 Local ECP potential is zero and ignored
  

 **** WARNING Zero Coefficient **** on atom "               o"
 angular momentum value:-1  standard basis set name: "Stuttgart RLC ECP"
 input line that generated warning:
  1519: 2      1.000000000            0.000000000
  
 Local ECP potential is zero and ignored
  
                 ECP       "ecp basis" -> "" (cartesian)
                -----
  c (Carbon) Replaces     2 electrons
  -----------------------------------
             Channel    R-exponent     Exponent     Coefficients
         ------------ ---------------------------------------------------------
  1 U-s       Both         2.00        6.401052      33.121638

  2 U-p       Both         2.00        7.307747      -1.986257

  3 U-d       Both         2.00        5.961796      -9.454318

  o (Oxygen) Replaces     2 electrons
  -----------------------------------
             Channel    R-exponent     Exponent     Coefficients
         ------------ ---------------------------------------------------------
  1 U-s       Both         2.00       10.445670      50.771069

  2 U-p       Both         2.00       18.045174      -4.903551

  3 U-d       Both         2.00        8.164798      -3.312124



                           NWChem Geometry Optimization
                           ----------------------------


 maximum gradient threshold         (gmax) =   0.000450
 rms gradient threshold             (grms) =   0.000300
 maximum cartesian step threshold   (xmax) =   0.001800
 rms cartesian step threshold       (xrms) =   0.001200
 fixed trust radius                (trust) =   0.300000
 maximum step size to saddle      (sadstp) =   0.100000
 energy precision                  (eprec) =   1.0D-07
 maximum number of steps          (nptopt) =   20
 initial hessian option           (inhess) =    0
 line search option               (linopt) =    1
 hessian update option            (modupd) =    1
 saddle point option              (modsad) =    0
 initial eigen-mode to follow     (moddir) =    0
 initial variable to follow       (vardir) =    0
 follow first negative mode     (firstneg) =    T
 apply conjugacy                    (opcg) =    F
 source of zmatrix                         =   autoz   


          -------------------
          Energy Minimization
          -------------------


 Names of Z-matrix variables 
    1              2              3              4              5         
    6              7              8              9             10         

 Variables with the same non-blank name are constrained to be equal


 Using diagonal initial Hessian 
 Scaling for Hessian diagonals: bonds = 1.00  angles = 0.25  torsions = 0.10

          --------
          Step   0
          --------


                         Geometry "geometry" -> "geometry"
                         ---------------------------------

 Output coordinates in angstroms (scale by  1.889725989 to convert to a.u.)

  No.       Tag          Charge          X              Y              Z
 ---- ---------------- ---------- -------------- -------------- --------------
    1 o                    8.0000    -0.00000000    -0.00000000    -0.79341743
    2 c                    6.0000     0.00000000     0.00000000     0.55999407
    3 h                    1.0000     0.71491134     0.71491134     0.99579167
    4 h                    1.0000     0.26167571    -0.97658705     0.99579167
    5 h                    1.0000    -0.97658705     0.26167571     0.99579167

      Atomic Mass 
      ----------- 

      o                 15.994910
      c                 12.000000
      h                  1.007825


 Effective nuclear repulsion energy (a.u.)      34.5058725513

            Nuclear Dipole moment (a.u.) 
            ----------------------------
        X                 Y               Z
 ---------------- ---------------- ----------------
     0.0000000000    -0.0000000000     0.0000000000

      Symmetry information
      --------------------

 Group name             C3v       
 Group number             17
 Group order               6
 No. of unique centers     3

      Symmetry unique atoms

     1    2    3


 solvent parameters
 solvname_short: h2o     
 solvname_long:  water                              
 dielec:       78.4000
 dielecinf:     1.7769

          ---------------
          -cosmo- solvent
          ---------------
 Cosmo: York-Karplus, doi: 10.1021/jp992097l
 dielectric constant -eps-     =  78.40
 screen = (eps-1)/(eps    )    =   0.98724
 surface charge correction     = lagrangian
 -lineq- algorithm             =   0
 -bem- low  level              =   2
 -bem- from -octahedral-
 gaussian surface charge width =   0.98000
 degree of switching           =   1.00000
 switching function tolerance  =   0.00010
 atomic radii = 
 --------------
    1  6.000  1.720
    2  4.000  2.000
    3  1.000  1.300
    4  1.000  1.300
    5  1.000  1.300

 solvent accessible surface
 --------------------------

 ---------- ATOMIC COORDINATES (A.U.) ------------ VDWR(ANG.) --
     1   -0.00000000   -0.00000000   -1.49934154     1.720
     2    0.00000000    0.00000000    1.05823535     2.000
     3    1.35098654    1.35098654    1.88177340     1.300
     4    0.49449539   -1.84548193    1.88177340     1.300
     5   -1.84548193    0.49449539    1.88177340     1.300
 number of segments per atom =         32
 number of   points per atom =         32
 atom (   nspa,  nppa )
 ----------------------
    1 (     24,     0 )       0
    2 (     25,     0 )       0
    3 (     15,     0 )       0
    4 (     15,     0 )       0
    5 (     15,     0 )       0
 number of -cosmo- surface points =       94
 molecular surface =     63.480 angstrom**2
 molecular volume  =     35.859 angstrom**3
 G(cav/disp)       =      1.177 kcal/mol
 ...... end of -cosmo- initialization ......


                                 NWChem SCF Module
                                 -----------------



  ao basis        = "ao basis"
  functions       =    25
  atoms           =     5
  closed shells   =     7
  open shells     =     0
  charge          =  -1.00
  wavefunction    = RHF 
  input vectors   = atomic
  output vectors  = ./h3co_dat.movecs
  use symmetry    = T
  symmetry adapt  = T


 Summary of "ao basis" -> "ao basis" (cartesian)
 ------------------------------------------------------------------------------
       Tag                 Description            Shells   Functions and Types
 ---------------- ------------------------------  ------  ---------------------
 h                           6-31g*                  2        2   2s
 c                     Stuttgart RLC ECP             4        8   2s2p
 o                     Stuttgart RLC ECP             5       11   2s3p


      Symmetry analysis of basis
      --------------------------

        a1         11
        a2          0
        e          14


 Forming initial guess at       0.1s


      Superposition of Atomic Density Guess
      -------------------------------------

 Sum of atomic energies:         -24.77825633

 Renormalizing density from      13.00 to     14

      Non-variational initial energy
      ------------------------------

 Total energy =     -23.349498
 1-e energy   =     -82.297500
 2-e energy   =      38.254875
 HOMO         =       0.074599
 LUMO         =       0.383067


      Symmetry analysis of molecular orbitals - initial
      -------------------------------------------------

  Numbering of irreducible representations: 

     1 a1          2 a2          3 e       

  Orbital symmetries:

     1 a1          2 a1          3 e           4 e           5 a1      
     6 e           7 e           8 a1          9 e          10 e       
    11 a1         12 e          13 e          14 a1         15 e       
    16 e          17 a1      


 Starting SCF solution at       0.1s



 ----------------------------------------------
         Quadratically convergent ROHF

 Convergence threshold     :          1.000E-04
 Maximum no. of iterations :           30
 Final Fock-matrix accuracy:          1.000E-07
 ----------------------------------------------

     COSMO gas phase

 #quartets = 2.892D+03 #integrals = 1.727D+04 #direct =  0.0% #cached =100.0%


 Integral file          = ./h3co_dat.aoints.0
 Record size in doubles =  65536        No. of integs per rec  =  43688
 Max. records in memory =      2        Max. records in file   = 143867
 No. of bits per label  =      8        No. of bits per value  =     64


File balance: exchanges=     0  moved=     0  time=   0.0


              iter       energy          gnorm     gmax       time
             ----- ------------------- --------- --------- --------
                 1      -22.8521756376  8.22D-01  4.41D-01      0.1
                 2      -22.9031813836  1.71D-01  8.25D-02      0.1
                 3      -22.9057263968  9.64D-03  3.69D-03      0.2
                 4      -22.9057432440  4.79D-05  2.23D-05      0.2
     COSMO solvation phase

              iter       energy          gnorm     gmax       time
             ----- ------------------- --------- --------- --------
                 1      -23.0388930376  1.58D-01  7.25D-02      0.2
                 2      -23.0434651599  2.99D-02  1.50D-02      0.2
                 3      -23.0437072962  5.71D-03  2.81D-03      0.3
                 4      -23.0437244525  1.06D-03  4.98D-04      0.3
                 5      -23.0437263237  1.98D-04  9.35D-05      0.3
                 6      -23.0437266352  3.69D-05  1.80D-05      0.4
 
                  COSMO solvation results
                  -----------------------
 
                 gas phase energy =       -22.9057432440
                 sol phase energy =       -23.0437266352
 (electrostatic) solvation energy =         0.1379833913 (   86.59 kcal/mol)


       Final RHF  results 
       ------------------ 

         Total SCF energy =    -23.043726635248
      One-electron energy =    -85.298712637330
      Two-electron energy =     38.272738620837
 Nuclear repulsion energy =     20.693127128192
             COSMO energy =      3.289120253053

        Time for solution =      0.2s



       Symmetry analysis of molecular orbitals - final
       -----------------------------------------------

  Numbering of irreducible representations: 

     1 a1          2 a2          3 e       

  Orbital symmetries:

     1 a1          2 a1          3 e           4 e           5 a1      
     6 e           7 e           8 a1          9 e          10 e       
    11 a1         12 e          13 e          14 a1         15 e       
    16 e          17 a1      

             Final eigenvalues
             -----------------

              1      
    1   -1.2338
    2   -0.8542
    3   -0.5653
    4   -0.5653
    5   -0.4924
    6   -0.3328
    7   -0.3328
    8    0.1932
    9    0.2146
   10    0.2146
   11    0.2862
   12    0.3624
   13    0.3624
   14    0.4082
   15    0.8180
   16    0.8180
   17    0.9037

                       ROHF Final Molecular Orbital Analysis
                       -------------------------------------

 Vector    1  Occ=2.000000D+00  E=-1.233835D+00  Symmetry=a1
              MO Center=  0.0D+00, -1.7D-18, -4.4D-01, r^2= 6.3D-01
   Bfn.  Coefficient  Atom+Function         Bfn.  Coefficient  Atom+Function  
  ----- ------------  ---------------      ----- ------------  ---------------
     2      0.439346  1 O  s                  1     -0.391982  1 O  s          
    12     -0.244056  2 C  s          

 Vector    2  Occ=2.000000D+00  E=-8.542109D-01  Symmetry=a1
              MO Center= -2.6D-17, -4.2D-17,  5.9D-01, r^2= 1.4D+00
   Bfn.  Coefficient  Atom+Function         Bfn.  Coefficient  Atom+Function  
  ----- ------------  ---------------      ----- ------------  ---------------
    12      0.419786  2 C  s                  2      0.286025  1 O  s          
    13     -0.197328  2 C  s                  1     -0.187924  1 O  s          
    16      0.152492  2 C  pz                20     -0.150232  3 H  s          
    22     -0.150232  4 H  s                 24     -0.150232  5 H  s          

 Vector    3  Occ=2.000000D+00  E=-5.652517D-01  Symmetry=e
              MO Center= -7.4D-02,  1.6D-01,  4.5D-01, r^2= 1.5D+00
   Bfn.  Coefficient  Atom+Function         Bfn.  Coefficient  Atom+Function  
  ----- ------------  ---------------      ----- ------------  ---------------
    14      0.397627  2 C  px                 3     -0.239411  1 O  px         
    24      0.218408  5 H  s                 17     -0.202505  2 C  px         
    20     -0.197100  3 H  s                 25      0.161955  5 H  s          
     6     -0.157298  1 O  px         

 Vector    4  Occ=2.000000D+00  E=-5.652517D-01  Symmetry=e
              MO Center=  7.4D-02, -1.6D-01,  4.5D-01, r^2= 1.5D+00
   Bfn.  Coefficient  Atom+Function         Bfn.  Coefficient  Atom+Function  
  ----- ------------  ---------------      ----- ------------  ---------------
    15      0.397627  2 C  py                 4     -0.239411  1 O  py         
    22      0.239893  4 H  s                 18     -0.202505  2 C  py         
    23      0.177887  4 H  s                  7     -0.157298  1 O  py         

 Vector    5  Occ=2.000000D+00  E=-4.924242D-01  Symmetry=a1
              MO Center=  1.4D-17, -7.1D-17, -5.1D-01, r^2= 1.3D+00
   Bfn.  Coefficient  Atom+Function         Bfn.  Coefficient  Atom+Function  
  ----- ------------  ---------------      ----- ------------  ---------------
     5      0.458139  1 O  pz                16      0.372324  2 C  pz         
     8      0.351408  1 O  pz                 2     -0.214350  1 O  s          

 Vector    6  Occ=2.000000D+00  E=-3.328222D-01  Symmetry=e
              MO Center=  6.5D-02, -6.0D-02, -4.2D-01, r^2= 1.6D+00
   Bfn.  Coefficient  Atom+Function         Bfn.  Coefficient  Atom+Function  
  ----- ------------  ---------------      ----- ------------  ---------------
     4      0.529355  1 O  py                 7      0.471033  1 O  py         
    23      0.283257  4 H  s                 21     -0.212714  3 H  s          
    22      0.172380  4 H  s                 10      0.165589  1 O  py         
    15      0.163456  2 C  py         

 Vector    7  Occ=2.000000D+00  E=-3.328222D-01  Symmetry=e
              MO Center= -6.5D-02,  6.0D-02, -4.2D-01, r^2= 1.6D+00
   Bfn.  Coefficient  Atom+Function         Bfn.  Coefficient  Atom+Function  
  ----- ------------  ---------------      ----- ------------  ---------------
     3      0.529355  1 O  px                 6      0.471033  1 O  px         
    25      0.286349  5 H  s                 21     -0.204266  3 H  s          
    24      0.174262  5 H  s                  9      0.165589  1 O  px         
    14      0.163456  2 C  px         

 Vector    8  Occ=0.000000D+00  E= 1.932475D-01  Symmetry=a1
              MO Center=  3.8D-17,  8.7D-18, -2.1D+00, r^2= 4.0D+00
   Bfn.  Coefficient  Atom+Function         Bfn.  Coefficient  Atom+Function  
  ----- ------------  ---------------      ----- ------------  ---------------
    11      1.433340  1 O  pz                13     -0.620103  2 C  s          
     2      0.520505  1 O  s                 19      0.268901  2 C  pz         
    21     -0.176673  3 H  s                 23     -0.176673  4 H  s          
    25     -0.176673  5 H  s                  8     -0.167239  1 O  pz         

 Vector    9  Occ=0.000000D+00  E= 2.146326D-01  Symmetry=e
              MO Center= -9.1D-02,  1.0D-02, -9.1D-01, r^2= 6.0D+00
   Bfn.  Coefficient  Atom+Function         Bfn.  Coefficient  Atom+Function  
  ----- ------------  ---------------      ----- ------------  ---------------
     9      1.167346  1 O  px                17     -0.580536  2 C  px         
    10     -0.409573  1 O  py                25     -0.357463  5 H  s          
     6     -0.297647  1 O  px                18      0.203686  2 C  py         
    23      0.202192  4 H  s                 21      0.155271  3 H  s          

 Vector   10  Occ=0.000000D+00  E= 2.146326D-01  Symmetry=e
              MO Center=  9.1D-02, -1.0D-02, -9.1D-01, r^2= 6.0D+00
   Bfn.  Coefficient  Atom+Function         Bfn.  Coefficient  Atom+Function  
  ----- ------------  ---------------      ----- ------------  ---------------
    10      1.167346  1 O  py                18     -0.580536  2 C  py         
     9      0.409573  1 O  px                21      0.323117  3 H  s          
     7     -0.297647  1 O  py                23     -0.296027  4 H  s          
    17     -0.203686  2 C  px         

 Vector   11  Occ=0.000000D+00  E= 2.862067D-01  Symmetry=a1
              MO Center= -1.1D-16, -1.7D-16,  8.6D-01, r^2= 3.7D+00
   Bfn.  Coefficient  Atom+Function         Bfn.  Coefficient  Atom+Function  
  ----- ------------  ---------------      ----- ------------  ---------------
    13      2.530768  2 C  s                 21     -1.511177  3 H  s          
    23     -1.511177  4 H  s                 25     -1.511177  5 H  s          
    19      1.214954  2 C  pz                 2      0.324363  1 O  s          
    12     -0.259996  2 C  s                 11      0.221788  1 O  pz         
    16     -0.203592  2 C  pz         

 Vector   12  Occ=0.000000D+00  E= 3.624249D-01  Symmetry=e
              MO Center= -2.7D-01, -1.1D-01,  7.9D-01, r^2= 3.4D+00
   Bfn.  Coefficient  Atom+Function         Bfn.  Coefficient  Atom+Function  
  ----- ------------  ---------------      ----- ------------  ---------------
    25      1.886704  5 H  s                 23     -1.507359  4 H  s          
    17      1.317453  2 C  px                18     -0.890100  2 C  py         
    21     -0.379345  3 H  s                  6     -0.353213  1 O  px         
    14     -0.273633  2 C  px                 9      0.251884  1 O  px         
     7      0.238638  1 O  py                15      0.184873  2 C  py         

 Vector   13  Occ=0.000000D+00  E= 3.624249D-01  Symmetry=e
              MO Center=  2.7D-01,  1.1D-01,  7.9D-01, r^2= 3.4D+00
   Bfn.  Coefficient  Atom+Function         Bfn.  Coefficient  Atom+Function  
  ----- ------------  ---------------      ----- ------------  ---------------
    21      1.959563  3 H  s                 18     -1.317453  2 C  py         
    23     -1.308304  4 H  s                 17     -0.890100  2 C  px         
    25     -0.651259  5 H  s                  7      0.353213  1 O  py         
    15      0.273633  2 C  py                10     -0.251884  1 O  py         
     6      0.238638  1 O  px                14      0.184873  2 C  px         

 Vector   14  Occ=0.000000D+00  E= 4.082056D-01  Symmetry=a1
              MO Center=  8.5D-16,  9.6D-16,  5.0D-01, r^2= 3.4D+00
   Bfn.  Coefficient  Atom+Function         Bfn.  Coefficient  Atom+Function  
  ----- ------------  ---------------      ----- ------------  ---------------
    13      1.713555  2 C  s                 19     -1.246882  2 C  pz         
     2     -1.229762  1 O  s                  8     -0.781246  1 O  pz         
    21     -0.546724  3 H  s                 23     -0.546724  4 H  s          
    25     -0.546724  5 H  s                 11      0.531162  1 O  pz         
     5     -0.248848  1 O  pz                12     -0.196338  2 C  s          

 Vector   15  Occ=0.000000D+00  E= 8.179575D-01  Symmetry=e
              MO Center=  2.2D-01, -7.6D-02,  4.6D-01, r^2= 2.6D+00
   Bfn.  Coefficient  Atom+Function         Bfn.  Coefficient  Atom+Function  
  ----- ------------  ---------------      ----- ------------  ---------------
    17      1.914898  2 C  px                14      0.821130  2 C  px         
     9     -0.459859  1 O  px                25      0.441356  5 H  s          
    18     -0.437837  2 C  py                24      0.429749  5 H  s          
     6     -0.260323  1 O  px                21     -0.234833  3 H  s          
    20     -0.228657  3 H  s                 23     -0.206523  4 H  s          

 Vector   16  Occ=0.000000D+00  E= 8.179575D-01  Symmetry=e
              MO Center= -2.2D-01,  7.6D-02,  4.6D-01, r^2= 2.6D+00
   Bfn.  Coefficient  Atom+Function         Bfn.  Coefficient  Atom+Function  
  ----- ------------  ---------------      ----- ------------  ---------------
    18      1.914898  2 C  py                15      0.821130  2 C  py         
    10     -0.459859  1 O  py                17      0.437837  2 C  px         
    23      0.390398  4 H  s                 22      0.380131  4 H  s          
    21     -0.374053  3 H  s                 20     -0.364216  3 H  s          
     7     -0.260323  1 O  py                14      0.187749  2 C  px         

 Vector   17  Occ=0.000000D+00  E= 9.037272D-01  Symmetry=a1
              MO Center= -6.8D-17, -4.4D-17,  2.1D-01, r^2= 1.3D+00
   Bfn.  Coefficient  Atom+Function         Bfn.  Coefficient  Atom+Function  
  ----- ------------  ---------------      ----- ------------  ---------------
    16      1.110147  2 C  pz                19      0.945834  2 C  pz         
    13      0.800866  2 C  s                  8     -0.414136  1 O  pz         
     5     -0.408557  1 O  pz                21     -0.368217  3 H  s          
    23     -0.368217  4 H  s                 25     -0.368217  5 H  s          
    12     -0.338671  2 C  s                  1      0.172540  1 O  s          


 center of mass
 --------------
 x =   0.00000000 y =  -0.00000000 z =  -0.18032899

 moments of inertia (a.u.)
 ------------------
          64.611309796422           0.000000000000           0.000000000000
           0.000000000000          64.611309796422           0.000000000000
           0.000000000000           0.000000000000          11.036679212476

  Mulliken analysis of the total density
  --------------------------------------

    Atom       Charge   Shell Charges
 -----------   ------   -------------------------------------------------------
    1 O    6     7.09   0.83  1.04  2.71  2.21  0.30
    2 C    4     4.08   0.89  0.32  2.00  0.87
    3 H    1     0.94   0.56  0.38
    4 H    1     0.94   0.56  0.38
    5 H    1     0.94   0.56  0.38

       Multipole analysis of the density wrt the origin
       ------------------------------------------------

     L   x y z        total         open         nuclear
     -   - - -        -----         ----         -------
     0   0 0 0     -1.000000      0.000000     13.000000

     1   1 0 0      0.000000      0.000000      0.000000
     1   0 1 0     -0.000000      0.000000     -0.000000
     1   0 0 1      2.016777      0.000000      0.882212

     2   2 0 0    -11.853635      0.000000      5.475494
     2   1 1 0     -0.000000      0.000000      0.000000
     2   1 0 1      0.000000      0.000000      0.000000
     2   0 2 0    -11.853635      0.000000      5.475494
     2   0 1 1     -0.000000      0.000000     -0.000000
     2   0 0 2    -15.586091      0.000000     28.590812


 Parallel integral file used       4 records with       0 large values

                              NWChem Gradients Module
                              -----------------------



  wavefunction    =   RHF     

  Using symmetry


                         RHF ENERGY GRADIENTS

    atom               coordinates                        gradient
                 x          y          z           x          y          z
   1 o      -0.000000  -0.000000  -1.499342    0.000000   0.000000   0.047786
   2 c       0.000000   0.000000   1.058235    0.000000   0.000000  -0.045117
   3 h       1.350987   1.350987   1.881773    0.001992   0.001992  -0.000890
   4 h       0.494495  -1.845482   1.881773    0.000729  -0.002721  -0.000890
   5 h      -1.845482   0.494495   1.881773   -0.002721   0.000729  -0.000890

                 ----------------------------------------
                 |  Time  |  1-e(secs)   |  2-e(secs)   |
                 ----------------------------------------
                 |  CPU   |       0.02   |       0.05   |
                 ----------------------------------------
                 |  WALL  |       0.02   |       0.05   |
                 ----------------------------------------

@ Step       Energy      Delta E   Gmax     Grms     Xrms     Xmax   Walltime
@ ---- ---------------- -------- -------- -------- -------- -------- --------
@    0     -23.04372664  0.0D+00  0.04779  0.01518  0.00000  0.00000      0.4
                                                                    



                                Z-matrix (autoz)
                                -------- 

 Units are Angstrom for bonds and degrees for angles

      Type          Name      I     J     K     L     M      Value     Gradient
      ----------- --------  ----- ----- ----- ----- ----- ---------- ----------
    1 Stretch                  1     2                       1.35341   -0.04779
    2 Stretch                  2     3                       1.10096    0.00223
    3 Stretch                  2     4                       1.10096    0.00223
    4 Stretch                  2     5                       1.10096    0.00223
    5 Bend                     1     2     3               113.31798   -0.00093
    6 Bend                     1     2     4               113.31798   -0.00093
    7 Bend                     1     2     5               113.31798   -0.00093
    8 Bend                     3     2     4               105.36538    0.00106
    9 Bend                     3     2     5               105.36538    0.00106
   10 Bend                     4     2     5               105.36538    0.00106


 solvent parameters
 solvname_short: h2o     
 solvname_long:  water                              
 dielec:       78.4000
 dielecinf:     1.7769

          ---------------
          -cosmo- solvent
          ---------------
 Cosmo: York-Karplus, doi: 10.1021/jp992097l
 dielectric constant -eps-     =  78.40
 screen = (eps-1)/(eps    )    =   0.98724
 surface charge correction     = lagrangian
 -lineq- algorithm             =   0
 -bem- low  level              =   2
 -bem- from -octahedral-
 gaussian surface charge width =   0.98000
 degree of switching           =   1.00000
 switching function tolerance  =   0.00010
 atomic radii = 
 --------------
    1  6.000  1.720
    2  4.000  2.000
    3  1.000  1.300
    4  1.000  1.300
    5  1.000  1.300

 solvent accessible surface
 --------------------------

 ---------- ATOMIC COORDINATES (A.U.) ------------ VDWR(ANG.) --
     1    0.00000000    0.00000000   -1.59986163     1.720
     2   -0.00000000   -0.00000000    1.07205890     2.000
     3    1.34124785    1.34124785    1.91067225     1.300
     4    0.49093079   -1.83217863    1.91067225     1.300
     5   -1.83217863    0.49093079    1.91067225     1.300
 number of segments per atom =         32
 number of   points per atom =         32
 atom (   nspa,  nppa )
 ----------------------
    1 (     24,     0 )       0
    2 (     25,     0 )       0
    3 (     15,     0 )       0
    4 (     15,     0 )       0
    5 (     15,     0 )       0
 number of -cosmo- surface points =       94
 molecular surface =     64.405 angstrom**2
 molecular volume  =     36.439 angstrom**3
 G(cav/disp)       =      1.182 kcal/mol
 ...... end of -cosmo- initialization ......


                                 NWChem SCF Module
                                 -----------------



  ao basis        = "ao basis"
  functions       =    25
  atoms           =     5
  closed shells   =     7
  open shells     =     0
  charge          =  -1.00
  wavefunction    = RHF 
  input vectors   = ./h3co_dat.movecs
  output vectors  = ./h3co_dat.movecs
  use symmetry    = T
  symmetry adapt  = T


 Summary of "ao basis" -> "ao basis" (cartesian)
 ------------------------------------------------------------------------------
       Tag                 Description            Shells   Functions and Types
 ---------------- ------------------------------  ------  ---------------------
 h                           6-31g*                  2        2   2s
 c                     Stuttgart RLC ECP             4        8   2s2p
 o                     Stuttgart RLC ECP             5       11   2s3p


      Symmetry analysis of basis
      --------------------------

        a1         11
        a2          0
        e          14


 Forming initial guess at       0.4s


 Loading old vectors from job with title :




      Symmetry analysis of molecular orbitals - initial
      -------------------------------------------------

  Numbering of irreducible representations: 

     1 a1          2 a2          3 e       

  Orbital symmetries:

     1 a1          2 a1          3 e           4 e           5 a1      
     6 e           7 e           8 a1          9 e          10 e       
    11 a1         12 e          13 e          14 a1         15 e       
    16 e          17 a1      


 Starting SCF solution at       0.4s



 ----------------------------------------------
         Quadratically convergent ROHF

 Convergence threshold     :          1.000E-04
 Maximum no. of iterations :           30
 Final Fock-matrix accuracy:          1.000E-07
 ----------------------------------------------

     COSMO gas phase

 #quartets = 2.892D+03 #integrals = 1.727D+04 #direct =  0.0% #cached =100.0%


 Integral file          = ./h3co_dat.aoints.0
 Record size in doubles =  65536        No. of integs per rec  =  43688
 Max. records in memory =      2        Max. records in file   = 143867
 No. of bits per label  =      8        No. of bits per value  =     64


File balance: exchanges=     0  moved=     0  time=   0.0


              iter       energy          gnorm     gmax       time
             ----- ------------------- --------- --------- --------
                 1      -22.8993730048  2.28D-01  1.28D-01      0.5
                 2      -22.9058318978  1.28D-01  5.56D-02      0.5
                 3      -22.9070709524  9.35D-03  2.89D-03      0.5
                 4      -22.9070879077  6.65D-05  2.70D-05      0.5
     COSMO solvation phase

              iter       energy          gnorm     gmax       time
             ----- ------------------- --------- --------- --------
                 1      -23.0411450220  1.64D-01  8.37D-02      0.5
                 2      -23.0461561346  3.19D-02  1.78D-02      0.6
                 3      -23.0464404884  6.35D-03  3.43D-03      0.6
                 4      -23.0464596332  1.22D-03  6.42D-04      0.6
                 5      -23.0464619720  2.37D-04  1.24D-04      0.7
                 6      -23.0464623704  4.63D-05  2.54D-05      0.7
 
                  COSMO solvation results
                  -----------------------
 
                 gas phase energy =       -22.9070879077
                 sol phase energy =       -23.0464623704
 (electrostatic) solvation energy =         0.1393744628 (   87.46 kcal/mol)


       Final RHF  results 
       ------------------ 

         Total SCF energy =    -23.046462370417
      One-electron energy =    -84.363403603895
      Two-electron energy =     37.834194032254
 Nuclear repulsion energy =     20.192618170793
             COSMO energy =      3.290129030432

        Time for solution =      0.2s



       Symmetry analysis of molecular orbitals - final
       -----------------------------------------------

  Numbering of irreducible representations: 

     1 a1          2 a2          3 e       

  Orbital symmetries:

     1 a1          2 a1          3 e           4 e           5 a1      
     6 e           7 e           8 a1          9 e          10 e       
    11 a1         12 e          13 e          14 a1         15 e       
    16 e          17 a1      

             Final eigenvalues
             -----------------

              1      
    1   -1.2073
    2   -0.8656
    3   -0.5582
    4   -0.5582
    5   -0.4789
    6   -0.3396
    7   -0.3396
    8    0.1919
    9    0.2174
   10    0.2174
   11    0.2862
   12    0.3585
   13    0.3585
   14    0.3953
   15    0.8114
   16    0.8114
   17    0.8491

                       ROHF Final Molecular Orbital Analysis
                       -------------------------------------

 Vector    1  Occ=2.000000D+00  E=-1.207323D+00  Symmetry=a1
              MO Center=  4.3D-19, -4.3D-19, -5.1D-01, r^2= 6.6D-01
   Bfn.  Coefficient  Atom+Function         Bfn.  Coefficient  Atom+Function  
  ----- ------------  ---------------      ----- ------------  ---------------
     2      0.457094  1 O  s                  1     -0.396396  1 O  s          
    12     -0.229144  2 C  s          

 Vector    2  Occ=2.000000D+00  E=-8.655905D-01  Symmetry=a1
              MO Center=  1.6D-17, -1.5D-17,  6.0D-01, r^2= 1.4D+00
   Bfn.  Coefficient  Atom+Function         Bfn.  Coefficient  Atom+Function  
  ----- ------------  ---------------      ----- ------------  ---------------
    12      0.425194  2 C  s                  2      0.273977  1 O  s          
    13     -0.197515  2 C  s                  1     -0.183748  1 O  s          
    20     -0.150471  3 H  s                 22     -0.150471  4 H  s          
    24     -0.150471  5 H  s          

 Vector    3  Occ=2.000000D+00  E=-5.581924D-01  Symmetry=e
              MO Center=  4.3D-02, -1.8D-01,  5.0D-01, r^2= 1.5D+00
   Bfn.  Coefficient  Atom+Function         Bfn.  Coefficient  Atom+Function  
  ----- ------------  ---------------      ----- ------------  ---------------
    15      0.392297  2 C  py                22      0.249673  4 H  s          
     4     -0.214268  1 O  py                18     -0.201134  2 C  py         
    23      0.188530  4 H  s          

 Vector    4  Occ=2.000000D+00  E=-5.581924D-01  Symmetry=e
              MO Center= -4.3D-02,  1.8D-01,  5.0D-01, r^2= 1.5D+00
   Bfn.  Coefficient  Atom+Function         Bfn.  Coefficient  Atom+Function  
  ----- ------------  ---------------      ----- ------------  ---------------
    14      0.392297  2 C  px                20     -0.217825  3 H  s          
     3     -0.214268  1 O  px                24      0.214621  5 H  s          
    17     -0.201134  2 C  px                21     -0.164481  3 H  s          
    25      0.162062  5 H  s          

 Vector    5  Occ=2.000000D+00  E=-4.789439D-01  Symmetry=a1
              MO Center= -5.2D-18, -1.7D-18, -5.1D-01, r^2= 1.4D+00
   Bfn.  Coefficient  Atom+Function         Bfn.  Coefficient  Atom+Function  
  ----- ------------  ---------------      ----- ------------  ---------------
     5      0.451067  1 O  pz                16      0.370076  2 C  pz         
     8      0.355475  1 O  pz                 2     -0.207222  1 O  s          

 Vector    6  Occ=2.000000D+00  E=-3.396329D-01  Symmetry=e
              MO Center=  2.1D-02, -7.1D-02, -5.2D-01, r^2= 1.5D+00
   Bfn.  Coefficient  Atom+Function         Bfn.  Coefficient  Atom+Function  
  ----- ------------  ---------------      ----- ------------  ---------------
     4      0.521687  1 O  py                 7      0.456084  1 O  py         
    23      0.269372  4 H  s                 22      0.165828  4 H  s          
    10      0.163096  1 O  py                15      0.151928  2 C  py         

 Vector    7  Occ=2.000000D+00  E=-3.396329D-01  Symmetry=e
              MO Center= -2.1D-02,  7.1D-02, -5.2D-01, r^2= 1.5D+00
   Bfn.  Coefficient  Atom+Function         Bfn.  Coefficient  Atom+Function  
  ----- ------------  ---------------      ----- ------------  ---------------
     3      0.521687  1 O  px                 6      0.456084  1 O  px         
    25      0.234815  5 H  s                 21     -0.231751  3 H  s          
     9      0.163096  1 O  px                14      0.151928  2 C  px         

 Vector    8  Occ=0.000000D+00  E= 1.918543D-01  Symmetry=a1
              MO Center= -6.9D-18, -1.5D-17, -2.1D+00, r^2= 4.1D+00
   Bfn.  Coefficient  Atom+Function         Bfn.  Coefficient  Atom+Function  
  ----- ------------  ---------------      ----- ------------  ---------------
    11      1.418496  1 O  pz                13     -0.687383  2 C  s          
     2      0.532211  1 O  s                 19      0.313234  2 C  pz         

 Vector    9  Occ=0.000000D+00  E= 2.173971D-01  Symmetry=e
              MO Center=  3.8D-02, -7.7D-02, -9.7D-01, r^2= 6.0D+00
   Bfn.  Coefficient  Atom+Function         Bfn.  Coefficient  Atom+Function  
  ----- ------------  ---------------      ----- ------------  ---------------
    10      1.217402  1 O  py                18     -0.593326  2 C  py         
    23     -0.357753  4 H  s                  7     -0.330786  1 O  py         
    21      0.209144  3 H  s                  9     -0.201984  1 O  px         
     4     -0.156211  1 O  py         

 Vector   10  Occ=0.000000D+00  E= 2.173971D-01  Symmetry=e
              MO Center= -3.8D-02,  7.7D-02, -9.7D-01, r^2= 6.0D+00
   Bfn.  Coefficient  Atom+Function         Bfn.  Coefficient  Atom+Function  
  ----- ------------  ---------------      ----- ------------  ---------------
     9      1.217402  1 O  px                17     -0.593326  2 C  px         
     6     -0.330786  1 O  px                25     -0.327298  5 H  s          
    21      0.292349  3 H  s                 10      0.201984  1 O  py         
     3     -0.156211  1 O  px         

 Vector   11  Occ=0.000000D+00  E= 2.861781D-01  Symmetry=a1
              MO Center= -5.6D-16, -3.9D-16,  8.7D-01, r^2= 3.7D+00
   Bfn.  Coefficient  Atom+Function         Bfn.  Coefficient  Atom+Function  
  ----- ------------  ---------------      ----- ------------  ---------------
    13      2.582215  2 C  s                 21     -1.536004  3 H  s          
    23     -1.536004  4 H  s                 25     -1.536004  5 H  s          
    19      1.246894  2 C  pz                 2      0.317192  1 O  s          
    12     -0.259543  2 C  s                 11      0.235600  1 O  pz         
    16     -0.202789  2 C  pz         

 Vector   12  Occ=0.000000D+00  E= 3.584727D-01  Symmetry=e
              MO Center= -3.1D-01, -3.2D-03,  8.2D-01, r^2= 3.4D+00
   Bfn.  Coefficient  Atom+Function         Bfn.  Coefficient  Atom+Function  
  ----- ------------  ---------------      ----- ------------  ---------------
    25      1.967796  5 H  s                 17      1.440740  2 C  px         
    23     -1.217367  4 H  s                 21     -0.750429  3 H  s          
    18     -0.605658  2 C  py                 6     -0.362597  1 O  px         
    14     -0.305369  2 C  px                 9      0.261151  1 O  px         
     7      0.152429  1 O  py                 3     -0.150573  1 O  px         

 Vector   13  Occ=0.000000D+00  E= 3.584727D-01  Symmetry=e
              MO Center=  3.1D-01,  3.2D-03,  8.2D-01, r^2= 3.4D+00
   Bfn.  Coefficient  Atom+Function         Bfn.  Coefficient  Atom+Function  
  ----- ------------  ---------------      ----- ------------  ---------------
    21      1.838954  3 H  s                 23     -1.569368  4 H  s          
    18     -1.440740  2 C  py                17     -0.605658  2 C  px         
     7      0.362597  1 O  py                15      0.305369  2 C  py         
    25     -0.269587  5 H  s                 10     -0.261151  1 O  py         
     6      0.152429  1 O  px                 4      0.150573  1 O  py         

 Vector   14  Occ=0.000000D+00  E= 3.952749D-01  Symmetry=a1
              MO Center=  3.7D-16, -4.0D-16,  3.9D-01, r^2= 3.4D+00
   Bfn.  Coefficient  Atom+Function         Bfn.  Coefficient  Atom+Function  
  ----- ------------  ---------------      ----- ------------  ---------------
    13      1.506362  2 C  s                 19     -1.153898  2 C  pz         
     2     -1.083818  1 O  s                  8     -0.809448  1 O  pz         
    11      0.548622  1 O  pz                21     -0.500714  3 H  s          
    23     -0.500714  4 H  s                 25     -0.500714  5 H  s          
     5     -0.284423  1 O  pz                12     -0.211503  2 C  s          

 Vector   15  Occ=0.000000D+00  E= 8.114338D-01  Symmetry=e
              MO Center=  2.1D-01, -7.4D-02,  4.6D-01, r^2= 2.6D+00
   Bfn.  Coefficient  Atom+Function         Bfn.  Coefficient  Atom+Function  
  ----- ------------  ---------------      ----- ------------  ---------------
    17      1.862506  2 C  px                14      0.807512  2 C  px         
     9     -0.443639  1 O  px                24      0.442052  5 H  s          
    18     -0.416482  2 C  py                25      0.410453  5 H  s          
     6     -0.235992  1 O  px                20     -0.237039  3 H  s          
    21     -0.220095  3 H  s                 22     -0.205013  4 H  s          

 Vector   16  Occ=0.000000D+00  E= 8.114338D-01  Symmetry=e
              MO Center= -2.1D-01,  7.4D-02,  4.6D-01, r^2= 2.6D+00
   Bfn.  Coefficient  Atom+Function         Bfn.  Coefficient  Atom+Function  
  ----- ------------  ---------------      ----- ------------  ---------------
    18      1.862506  2 C  py                15      0.807512  2 C  py         
    10     -0.443639  1 O  py                17      0.416482  2 C  px         
    22      0.392074  4 H  s                 20     -0.373583  3 H  s          
    23      0.364047  4 H  s                 21     -0.346878  3 H  s          
     7     -0.235992  1 O  py                14      0.180571  2 C  px         

 Vector   17  Occ=0.000000D+00  E= 8.490700D-01  Symmetry=a1
              MO Center= -2.6D-18, -2.9D-17,  2.7D-01, r^2= 1.4D+00
   Bfn.  Coefficient  Atom+Function         Bfn.  Coefficient  Atom+Function  
  ----- ------------  ---------------      ----- ------------  ---------------
    16      1.069796  2 C  pz                19      1.052117  2 C  pz         
    13      0.490652  2 C  s                  5     -0.396784  1 O  pz         
    12     -0.344189  2 C  s                 21     -0.287408  3 H  s          
    23     -0.287408  4 H  s                 25     -0.287408  5 H  s          
     2      0.280942  1 O  s                  8     -0.257291  1 O  pz         


 center of mass
 --------------
 x =   0.00000000 y =   0.00000000 z =  -0.22399832

 moments of inertia (a.u.)
 ------------------
          69.652028126141          -0.000000000000          -0.000000000000
          -0.000000000000          69.652028126141           0.000000000000
          -0.000000000000           0.000000000000          10.878135239329

  Mulliken analysis of the total density
  --------------------------------------

    Atom       Charge   Shell Charges
 -----------   ------   -------------------------------------------------------
    1 O    6     7.12   0.83  1.05  2.68  2.23  0.33
    2 C    4     4.09   0.89  0.33  1.98  0.89
    3 H    1     0.93   0.56  0.37
    4 H    1     0.93   0.56  0.37
    5 H    1     0.93   0.56  0.37

       Multipole analysis of the density wrt the origin
       ------------------------------------------------

     L   x y z        total         open         nuclear
     -   - - -        -----         ----         -------
     0   0 0 0     -1.000000      0.000000     13.000000

     1   1 0 0      0.000000      0.000000      0.000000
     1   0 1 0     -0.000000      0.000000      0.000000
     1   0 0 1      2.187742      0.000000      0.421083

     2   2 0 0    -11.897879      0.000000      5.396837
     2   1 1 0     -0.000000      0.000000     -0.000000
     2   1 0 1      0.000000      0.000000      0.000000
     2   0 2 0    -11.897879      0.000000      5.396837
     2   0 1 1     -0.000000      0.000000      0.000000
     2   0 0 2    -15.752469      0.000000     30.906590


 Parallel integral file used       4 records with       0 large values

 Line search: 
     step= 1.00 grad=-5.6D-03 hess= 2.9D-03 energy=    -23.046462 mode=accept  
 new step= 1.00                   predicted energy=    -23.046462

          --------
          Step   1
          --------


                         Geometry "geometry" -> "geometry"
                         ---------------------------------

 Output coordinates in angstroms (scale by  1.889725989 to convert to a.u.)

  No.       Tag          Charge          X              Y              Z
 ---- ---------------- ---------- -------------- -------------- --------------
    1 o                    8.0000     0.00000000     0.00000000    -0.84661038
    2 c                    6.0000    -0.00000000    -0.00000000     0.56730918
    3 h                    1.0000     0.70975785     0.70975785     1.01108428
    4 h                    1.0000     0.25978940    -0.96954725     1.01108428
    5 h                    1.0000    -0.96954725     0.25978940     1.01108428

      Atomic Mass 
      ----------- 

      o                 15.994910
      c                 12.000000
      h                  1.007825


 Effective nuclear repulsion energy (a.u.)      33.5716686353

            Nuclear Dipole moment (a.u.) 
            ----------------------------
        X                 Y               Z
 ---------------- ---------------- ----------------
     0.0000000000     0.0000000000    -0.6345229263

      Symmetry information
      --------------------

 Group name             C3v       
 Group number             17
 Group order               6
 No. of unique centers     3

      Symmetry unique atoms

     1    2    3


 solvent parameters
 solvname_short: h2o     
 solvname_long:  water                              
 dielec:       78.4000
 dielecinf:     1.7769

          ---------------
          -cosmo- solvent
          ---------------
 Cosmo: York-Karplus, doi: 10.1021/jp992097l
 dielectric constant -eps-     =  78.40
 screen = (eps-1)/(eps    )    =   0.98724
 surface charge correction     = lagrangian
 -lineq- algorithm             =   0
 -bem- low  level              =   2
 -bem- from -octahedral-
 gaussian surface charge width =   0.98000
 degree of switching           =   1.00000
 switching function tolerance  =   0.00010
 atomic radii = 
 --------------
    1  6.000  1.720
    2  4.000  2.000
    3  1.000  1.300
    4  1.000  1.300
    5  1.000  1.300

 solvent accessible surface
 --------------------------

 ---------- ATOMIC COORDINATES (A.U.) ------------ VDWR(ANG.) --
     1    0.00000000    0.00000000   -1.59986163     1.720
     2   -0.00000000   -0.00000000    1.07205890     2.000
     3    1.34124785    1.34124785    1.91067225     1.300
     4    0.49093079   -1.83217863    1.91067225     1.300
     5   -1.83217863    0.49093079    1.91067225     1.300
 number of segments per atom =         32
 number of   points per atom =         32
 atom (   nspa,  nppa )
 ----------------------
    1 (     24,     0 )       0
    2 (     25,     0 )       0
    3 (     15,     0 )       0
    4 (     15,     0 )       0
    5 (     15,     0 )       0
 number of -cosmo- surface points =       94
 molecular surface =     64.405 angstrom**2
 molecular volume  =     36.439 angstrom**3
 G(cav/disp)       =      1.182 kcal/mol
 ...... end of -cosmo- initialization ......


                                 NWChem SCF Module
                                 -----------------



  ao basis        = "ao basis"
  functions       =    25
  atoms           =     5
  closed shells   =     7
  open shells     =     0
  charge          =  -1.00
  wavefunction    = RHF 
  input vectors   = ./h3co_dat.movecs
  output vectors  = ./h3co_dat.movecs
  use symmetry    = T
  symmetry adapt  = T


 Summary of "ao basis" -> "ao basis" (cartesian)
 ------------------------------------------------------------------------------
       Tag                 Description            Shells   Functions and Types
 ---------------- ------------------------------  ------  ---------------------
 h                           6-31g*                  2        2   2s
 c                     Stuttgart RLC ECP             4        8   2s2p
 o                     Stuttgart RLC ECP             5       11   2s3p


      Symmetry analysis of basis
      --------------------------

        a1         11
        a2          0
        e          14


  The SCF is already converged 

         Total SCF energy =    -23.046462370417

                              NWChem Gradients Module
                              -----------------------



  wavefunction    =   RHF     

  Using symmetry


                         RHF ENERGY GRADIENTS

    atom               coordinates                        gradient
                 x          y          z           x          y          z
   1 o       0.000000   0.000000  -1.599862    0.000000   0.000000   0.001071
   2 c      -0.000000  -0.000000   1.072059    0.000000   0.000000  -0.014236
   3 h       1.341248   1.341248   1.910672    0.000684   0.000684   0.004388
   4 h       0.490931  -1.832179   1.910672    0.000250  -0.000934   0.004388
   5 h      -1.832179   0.490931   1.910672   -0.000934   0.000250   0.004388

                 ----------------------------------------
                 |  Time  |  1-e(secs)   |  2-e(secs)   |
                 ----------------------------------------
                 |  CPU   |       0.02   |       0.04   |
                 ----------------------------------------
                 |  WALL  |       0.01   |       0.05   |
                 ----------------------------------------

  Step       Energy      Delta E   Gmax     Grms     Xrms     Xmax   Walltime
  ---- ---------------- -------- -------- -------- -------- -------- --------
@    1     -23.04646237 -2.7D-03  0.00266  0.00207  0.02983  0.10042      0.8
                                                                    



                                Z-matrix (autoz)
                                -------- 

 Units are Angstrom for bonds and degrees for angles

      Type          Name      I     J     K     L     M      Value     Gradient
      ----------- --------  ----- ----- ----- ----- ----- ---------- ----------
    1 Stretch                  1     2                       1.41392   -0.00107
    2 Stretch                  2     3                       1.09747    0.00266
    3 Stretch                  2     4                       1.09747    0.00266
    4 Stretch                  2     5                       1.09747    0.00266
    5 Bend                     1     2     3               113.85106    0.00172
    6 Bend                     1     2     4               113.85106    0.00172
    7 Bend                     1     2     5               113.85106    0.00172
    8 Bend                     3     2     4               104.75811   -0.00197
    9 Bend                     3     2     5               104.75811   -0.00197
   10 Bend                     4     2     5               104.75811   -0.00197


 solvent parameters
 solvname_short: h2o     
 solvname_long:  water                              
 dielec:       78.4000
 dielecinf:     1.7769

          ---------------
          -cosmo- solvent
          ---------------
 Cosmo: York-Karplus, doi: 10.1021/jp992097l
 dielectric constant -eps-     =  78.40
 screen = (eps-1)/(eps    )    =   0.98724
 surface charge correction     = lagrangian
 -lineq- algorithm             =   0
 -bem- low  level              =   2
 -bem- from -octahedral-
 gaussian surface charge width =   0.98000
 degree of switching           =   1.00000
 switching function tolerance  =   0.00010
 atomic radii = 
 --------------
    1  6.000  1.720
    2  4.000  2.000
    3  1.000  1.300
    4  1.000  1.300
    5  1.000  1.300

 solvent accessible surface
 --------------------------

 ---------- ATOMIC COORDINATES (A.U.) ------------ VDWR(ANG.) --
     1    0.00000000    0.00000000   -1.58843290     1.720
     2    0.00000000    0.00000000    1.09512707     2.000
     3    1.34540730    1.34540730    1.89917328     1.300
     4    0.49245325   -1.83786055    1.89917328     1.300
     5   -1.83786055    0.49245325    1.89917328     1.300
 number of segments per atom =         32
 number of   points per atom =         32
 atom (   nspa,  nppa )
 ----------------------
    1 (     24,     0 )       0
    2 (     25,     0 )       0
    3 (     15,     0 )       0
    4 (     15,     0 )       0
    5 (     15,     0 )       0
 number of -cosmo- surface points =       94
 molecular surface =     64.134 angstrom**2
 molecular volume  =     36.289 angstrom**3
 G(cav/disp)       =      1.181 kcal/mol
 ...... end of -cosmo- initialization ......


                                 NWChem SCF Module
                                 -----------------



  ao basis        = "ao basis"
  functions       =    25
  atoms           =     5
  closed shells   =     7
  open shells     =     0
  charge          =  -1.00
  wavefunction    = RHF 
  input vectors   = ./h3co_dat.movecs
  output vectors  = ./h3co_dat.movecs
  use symmetry    = T
  symmetry adapt  = T


 Summary of "ao basis" -> "ao basis" (cartesian)
 ------------------------------------------------------------------------------
       Tag                 Description            Shells   Functions and Types
 ---------------- ------------------------------  ------  ---------------------
 h                           6-31g*                  2        2   2s
 c                     Stuttgart RLC ECP             4        8   2s2p
 o                     Stuttgart RLC ECP             5       11   2s3p


      Symmetry analysis of basis
      --------------------------

        a1         11
        a2          0
        e          14


 Forming initial guess at       0.8s


 Loading old vectors from job with title :




      Symmetry analysis of molecular orbitals - initial
      -------------------------------------------------

  Numbering of irreducible representations: 

     1 a1          2 a2          3 e       

  Orbital symmetries:

     1 a1          2 a1          3 e           4 e           5 a1      
     6 e           7 e           8 a1          9 e          10 e       
    11 a1         12 e          13 e          14 a1         15 e       
    16 e          17 a1      


 Starting SCF solution at       0.8s



 ----------------------------------------------
         Quadratically convergent ROHF

 Convergence threshold     :          1.000E-04
 Maximum no. of iterations :           30
 Final Fock-matrix accuracy:          1.000E-07
 ----------------------------------------------

     COSMO gas phase

 #quartets = 2.892D+03 #integrals = 1.727D+04 #direct =  0.0% #cached =100.0%


 Integral file          = ./h3co_dat.aoints.0
 Record size in doubles =  65536        No. of integs per rec  =  43688
 Max. records in memory =      2        Max. records in file   = 143867
 No. of bits per label  =      8        No. of bits per value  =     64


File balance: exchanges=     0  moved=     0  time=   0.0


              iter       energy          gnorm     gmax       time
             ----- ------------------- --------- --------- --------
                 1      -22.9006550791  1.89D-01  1.07D-01      0.8
                 2      -22.9059277595  1.10D-01  4.91D-02      0.8
                 3      -22.9068106051  6.62D-03  2.22D-03      0.8
                 4      -22.9068200914  1.70D-05  5.52D-06      0.8
     COSMO solvation phase

              iter       energy          gnorm     gmax       time
             ----- ------------------- --------- --------- --------
                 1      -23.0414495416  1.64D-01  8.59D-02      0.9
                 2      -23.0465114708  3.16D-02  1.80D-02      0.9
                 3      -23.0467927307  6.24D-03  3.42D-03      0.9
                 4      -23.0468115034  1.19D-03  6.36D-04      1.0
                 5      -23.0468137663  2.29D-04  1.22D-04      1.0
                 6      -23.0468141527  4.42D-05  2.47D-05      1.0
 
                  COSMO solvation results
                  -----------------------
 
                 gas phase energy =       -22.9068200914
                 sol phase energy =       -23.0468141527
 (electrostatic) solvation energy =         0.1399940613 (   87.85 kcal/mol)


       Final RHF  results 
       ------------------ 

         Total SCF energy =    -23.046814152713
      One-electron energy =    -84.376640014688
      Two-electron energy =     37.843567574161
 Nuclear repulsion energy =     20.193827857834
             COSMO energy =      3.292430429980

        Time for solution =      0.2s



       Symmetry analysis of molecular orbitals - final
       -----------------------------------------------

  Numbering of irreducible representations: 

     1 a1          2 a2          3 e       

  Orbital symmetries:

     1 a1          2 a1          3 e           4 e           5 a1      
     6 e           7 e           8 a1          9 e          10 e       
    11 a1         12 e          13 e          14 a1         15 e       
    16 e          17 a1      

             Final eigenvalues
             -----------------

              1      
    1   -1.2045
    2   -0.8658
    3   -0.5603
    4   -0.5603
    5   -0.4751
    6   -0.3394
    7   -0.3394
    8    0.1916
    9    0.2178
   10    0.2178
   11    0.2869
   12    0.3587
   13    0.3587
   14    0.3960
   15    0.8084
   16    0.8084
   17    0.8449

                       ROHF Final Molecular Orbital Analysis
                       -------------------------------------

 Vector    1  Occ=2.000000D+00  E=-1.204476D+00  Symmetry=a1
              MO Center= -1.7D-18,  3.3D-19, -5.0D-01, r^2= 6.7D-01
   Bfn.  Coefficient  Atom+Function         Bfn.  Coefficient  Atom+Function  
  ----- ------------  ---------------      ----- ------------  ---------------
     2      0.457901  1 O  s                  1     -0.395949  1 O  s          
    12     -0.228905  2 C  s          

 Vector    2  Occ=2.000000D+00  E=-8.657686D-01  Symmetry=a1
              MO Center= -2.4D-17, -2.7D-17,  5.9D-01, r^2= 1.4D+00
   Bfn.  Coefficient  Atom+Function         Bfn.  Coefficient  Atom+Function  
  ----- ------------  ---------------      ----- ------------  ---------------
    12      0.426610  2 C  s                  2      0.276907  1 O  s          
    13     -0.194790  2 C  s                  1     -0.185506  1 O  s          
    20     -0.150633  3 H  s                 22     -0.150633  4 H  s          
    24     -0.150633  5 H  s          

 Vector    3  Occ=2.000000D+00  E=-5.602727D-01  Symmetry=e
              MO Center=  2.4D-02,  1.8D-01,  5.1D-01, r^2= 1.5D+00
   Bfn.  Coefficient  Atom+Function         Bfn.  Coefficient  Atom+Function  
  ----- ------------  ---------------      ----- ------------  ---------------
    14      0.367141  2 C  px                20     -0.238824  3 H  s          
     3     -0.194554  1 O  px                24      0.189541  5 H  s          
    17     -0.186737  2 C  px                15      0.181213  2 C  py         
    21     -0.178393  3 H  s          

 Vector    4  Occ=2.000000D+00  E=-5.602727D-01  Symmetry=e
              MO Center= -2.4D-02, -1.8D-01,  5.1D-01, r^2= 1.5D+00
   Bfn.  Coefficient  Atom+Function         Bfn.  Coefficient  Atom+Function  
  ----- ------------  ---------------      ----- ------------  ---------------
    15      0.367141  2 C  py                22      0.247317  4 H  s          
     4     -0.194554  1 O  py                18     -0.186737  2 C  py         
    23      0.184736  4 H  s                 14     -0.181213  2 C  px         
    24     -0.166339  5 H  s          

 Vector    5  Occ=2.000000D+00  E=-4.750739D-01  Symmetry=a1
              MO Center= -5.2D-18, -1.1D-17, -5.0D-01, r^2= 1.4D+00
   Bfn.  Coefficient  Atom+Function         Bfn.  Coefficient  Atom+Function  
  ----- ------------  ---------------      ----- ------------  ---------------
     5      0.450784  1 O  pz                16      0.370212  2 C  pz         
     8      0.357023  1 O  pz                 2     -0.204219  1 O  s          

 Vector    6  Occ=2.000000D+00  E=-3.394444D-01  Symmetry=e
              MO Center=  1.9D-02, -6.7D-02, -5.3D-01, r^2= 1.5D+00
   Bfn.  Coefficient  Atom+Function         Bfn.  Coefficient  Atom+Function  
  ----- ------------  ---------------      ----- ------------  ---------------
     4      0.523336  1 O  py                 7      0.456910  1 O  py         
    23      0.264461  4 H  s                 10      0.165161  1 O  py         
    22      0.162859  4 H  s                 15      0.150185  2 C  py         

 Vector    7  Occ=2.000000D+00  E=-3.394444D-01  Symmetry=e
              MO Center= -1.9D-02,  6.7D-02, -5.3D-01, r^2= 1.5D+00
   Bfn.  Coefficient  Atom+Function         Bfn.  Coefficient  Atom+Function  
  ----- ------------  ---------------      ----- ------------  ---------------
     3      0.523336  1 O  px                 6      0.456910  1 O  px         
    25      0.230070  5 H  s                 21     -0.227989  3 H  s          
     9      0.165161  1 O  px                14      0.150185  2 C  px         

 Vector    8  Occ=0.000000D+00  E= 1.916205D-01  Symmetry=a1
              MO Center=  6.9D-18,  8.7D-18, -2.1D+00, r^2= 4.1D+00
   Bfn.  Coefficient  Atom+Function         Bfn.  Coefficient  Atom+Function  
  ----- ------------  ---------------      ----- ------------  ---------------
    11      1.420353  1 O  pz                13     -0.657459  2 C  s          
     2      0.530520  1 O  s                 19      0.322728  2 C  pz         
    21     -0.161935  3 H  s                 23     -0.161935  4 H  s          
    25     -0.161935  5 H  s          

 Vector    9  Occ=0.000000D+00  E= 2.178259D-01  Symmetry=e
              MO Center= -5.3D-02,  7.0D-02, -9.6D-01, r^2= 6.0D+00
   Bfn.  Coefficient  Atom+Function         Bfn.  Coefficient  Atom+Function  
  ----- ------------  ---------------      ----- ------------  ---------------
     9      1.229487  1 O  px                17     -0.598387  2 C  px         
     6     -0.337986  1 O  px                25     -0.339363  5 H  s          
    21      0.270853  3 H  s                  3     -0.159717  1 O  px         

 Vector   10  Occ=0.000000D+00  E= 2.178259D-01  Symmetry=e
              MO Center=  5.3D-02, -7.0D-02, -9.6D-01, r^2= 6.0D+00
   Bfn.  Coefficient  Atom+Function         Bfn.  Coefficient  Atom+Function  
  ----- ------------  ---------------      ----- ------------  ---------------
    10      1.229487  1 O  py                18     -0.598387  2 C  py         
    23     -0.352308  4 H  s                  7     -0.337986  1 O  py         
    21      0.235485  3 H  s                  4     -0.159717  1 O  py         

 Vector   11  Occ=0.000000D+00  E= 2.869026D-01  Symmetry=a1
              MO Center= -4.4D-16, -1.4D-16,  8.7D-01, r^2= 3.7D+00
   Bfn.  Coefficient  Atom+Function         Bfn.  Coefficient  Atom+Function  
  ----- ------------  ---------------      ----- ------------  ---------------
    13      2.577247  2 C  s                 21     -1.522585  3 H  s          
    23     -1.522585  4 H  s                 25     -1.522585  5 H  s          
    19      1.218141  2 C  pz                 2      0.310026  1 O  s          
    12     -0.258680  2 C  s                 11      0.211383  1 O  pz         
    16     -0.202633  2 C  pz         

 Vector   12  Occ=0.000000D+00  E= 3.586670D-01  Symmetry=e
              MO Center= -2.9D-01,  1.2D-01,  8.2D-01, r^2= 3.4D+00
   Bfn.  Coefficient  Atom+Function         Bfn.  Coefficient  Atom+Function  
  ----- ------------  ---------------      ----- ------------  ---------------
    25      2.006101  5 H  s                 17      1.553751  2 C  px         
    21     -1.115806  3 H  s                 23     -0.890295  4 H  s          
     6     -0.381937  1 O  px                14     -0.321010  2 C  px         
    18     -0.310093  2 C  py                 9      0.282602  1 O  px         
     3     -0.157039  1 O  px         

 Vector   13  Occ=0.000000D+00  E= 3.586670D-01  Symmetry=e
              MO Center=  2.9D-01, -1.2D-01,  8.2D-01, r^2= 3.4D+00
   Bfn.  Coefficient  Atom+Function         Bfn.  Coefficient  Atom+Function  
  ----- ------------  ---------------      ----- ------------  ---------------
    23      1.802434  4 H  s                 21     -1.672235  3 H  s          
    18      1.553751  2 C  py                 7     -0.381937  1 O  py         
    15     -0.321010  2 C  py                17      0.310093  2 C  px         
    10      0.282602  1 O  py                 4     -0.157039  1 O  py         

 Vector   14  Occ=0.000000D+00  E= 3.959577D-01  Symmetry=a1
              MO Center=  3.5D-16, -1.3D-16,  4.1D-01, r^2= 3.4D+00
   Bfn.  Coefficient  Atom+Function         Bfn.  Coefficient  Atom+Function  
  ----- ------------  ---------------      ----- ------------  ---------------
    13      1.563188  2 C  s                 19     -1.127560  2 C  pz         
     2     -1.066677  1 O  s                  8     -0.809701  1 O  pz         
    11      0.558116  1 O  pz                21     -0.546211  3 H  s          
    23     -0.546211  4 H  s                 25     -0.546211  5 H  s          
     5     -0.287701  1 O  pz                12     -0.222291  2 C  s          

 Vector   15  Occ=0.000000D+00  E= 8.084177D-01  Symmetry=e
              MO Center=  1.7D-01, -1.4D-01,  4.7D-01, r^2= 2.6D+00
   Bfn.  Coefficient  Atom+Function         Bfn.  Coefficient  Atom+Function  
  ----- ------------  ---------------      ----- ------------  ---------------
    17      1.911832  2 C  px                14      0.823613  2 C  px         
     9     -0.449491  1 O  px                24      0.432235  5 H  s          
    25      0.409207  5 H  s                 20     -0.295962  3 H  s          
    21     -0.280194  3 H  s                  6     -0.241876  1 O  px         

 Vector   16  Occ=0.000000D+00  E= 8.084177D-01  Symmetry=e
              MO Center= -1.7D-01,  1.4D-01,  4.7D-01, r^2= 2.6D+00
   Bfn.  Coefficient  Atom+Function         Bfn.  Coefficient  Atom+Function  
  ----- ------------  ---------------      ----- ------------  ---------------
    18      1.911832  2 C  py                15      0.823613  2 C  py         
    10     -0.449491  1 O  py                22      0.420425  4 H  s          
    23      0.398026  4 H  s                 20     -0.328229  3 H  s          
    21     -0.310742  3 H  s                  7     -0.241876  1 O  py         

 Vector   17  Occ=0.000000D+00  E= 8.448534D-01  Symmetry=a1
              MO Center=  2.3D-17,  1.1D-17,  3.0D-01, r^2= 1.4D+00
   Bfn.  Coefficient  Atom+Function         Bfn.  Coefficient  Atom+Function  
  ----- ------------  ---------------      ----- ------------  ---------------
    16      1.070346  2 C  pz                19      1.042920  2 C  pz         
    13      0.491413  2 C  s                  5     -0.391803  1 O  pz         
    12     -0.328698  2 C  s                  2      0.281512  1 O  s          
    21     -0.282088  3 H  s                 23     -0.282088  4 H  s          
    25     -0.282088  5 H  s                  8     -0.249932  1 O  pz         


 center of mass
 --------------
 x =   0.00000000 y =   0.00000000 z =  -0.21030152

 moments of inertia (a.u.)
 ------------------
          69.754963867420          -0.000000000000           0.000000000000
          -0.000000000000          69.754963867420           0.000000000000
           0.000000000000           0.000000000000          10.945710019287

  Mulliken analysis of the total density
  --------------------------------------

    Atom       Charge   Shell Charges
 -----------   ------   -------------------------------------------------------
    1 O    6     7.13   0.83  1.06  2.68  2.23  0.33
    2 C    4     4.09   0.89  0.33  1.98  0.89
    3 H    1     0.93   0.56  0.37
    4 H    1     0.93   0.56  0.37
    5 H    1     0.93   0.56  0.37

       Multipole analysis of the density wrt the origin
       ------------------------------------------------

     L   x y z        total         open         nuclear
     -   - - -        -----         ----         -------
     0   0 0 0     -1.000000      0.000000     13.000000

     1   1 0 0     -0.000000      0.000000      0.000000
     1   0 1 0     -0.000000      0.000000      0.000000
     1   0 0 1      2.201479      0.000000      0.547431

     2   2 0 0    -11.867886      0.000000      5.430362
     2   1 1 0     -0.000000      0.000000      0.000000
     2   1 0 1     -0.000000      0.000000      0.000000
     2   0 2 0    -11.867886      0.000000      5.430362
     2   0 1 1      0.000000      0.000000      0.000000
     2   0 0 2    -15.728244      0.000000     30.756505


 Parallel integral file used       4 records with       0 large values

 Line search: 
     step= 1.00 grad=-4.5D-04 hess= 9.5D-05 energy=    -23.046814 mode=downhill
 new step= 2.35                   predicted energy=    -23.046987

          --------
          Step   2
          --------


                         Geometry "geometry" -> "geometry"
                         ---------------------------------

 Output coordinates in angstroms (scale by  1.889725989 to convert to a.u.)

  No.       Tag          Charge          X              Y              Z
 ---- ---------------- ---------- -------------- -------------- --------------
    1 o                    8.0000     0.00000000     0.00000000    -0.83220957
[...]
    25     -0.168592  5 H  s          

 Vector    9  Occ=0.000000D+00  E= 2.180916D-01  Symmetry=e
              MO Center=  1.2D-02, -8.7D-02, -9.6D-01, r^2= 5.9D+00
   Bfn.  Coefficient  Atom+Function         Bfn.  Coefficient  Atom+Function  
  ----- ------------  ---------------      ----- ------------  ---------------
    10      1.167127  1 O  py                18     -0.567184  2 C  py         
     9     -0.393338  1 O  px                23     -0.357627  4 H  s          
     7     -0.323141  1 O  py                25      0.198432  5 H  s          
    17      0.191149  2 C  px                21      0.159195  3 H  s          
     4     -0.152744  1 O  py         

 Vector   10  Occ=0.000000D+00  E= 2.180916D-01  Symmetry=e
              MO Center= -1.2D-02,  8.7D-02, -9.6D-01, r^2= 5.9D+00
   Bfn.  Coefficient  Atom+Function         Bfn.  Coefficient  Atom+Function  
  ----- ------------  ---------------      ----- ------------  ---------------
     9      1.167127  1 O  px                17     -0.567184  2 C  px         
    10      0.393338  1 O  py                 6     -0.323141  1 O  px         
    21      0.321041  3 H  s                 25     -0.298387  5 H  s          
    18     -0.191149  2 C  py                 3     -0.152744  1 O  px         

 Vector   11  Occ=0.000000D+00  E= 2.872122D-01  Symmetry=a1
              MO Center=  4.4D-16,  3.3D-16,  8.7D-01, r^2= 3.6D+00
   Bfn.  Coefficient  Atom+Function         Bfn.  Coefficient  Atom+Function  
  ----- ------------  ---------------      ----- ------------  ---------------
    13      2.574230  2 C  s                 21     -1.515172  3 H  s          
    23     -1.515172  4 H  s                 25     -1.515172  5 H  s          
    19      1.203210  2 C  pz                 2      0.306230  1 O  s          
    12     -0.258041  2 C  s                 16     -0.202564  2 C  pz         
    11      0.198631  1 O  pz         

 Vector   12  Occ=0.000000D+00  E= 3.586815D-01  Symmetry=e
              MO Center= -2.4D-01, -2.0D-01,  8.2D-01, r^2= 3.4D+00
   Bfn.  Coefficient  Atom+Function         Bfn.  Coefficient  Atom+Function  
  ----- ------------  ---------------      ----- ------------  ---------------
    25     -1.803451  5 H  s                 23      1.695299  4 H  s          
    17     -1.186798  2 C  px                18      1.066173  2 C  py         
     6      0.287739  1 O  px                 7     -0.258494  1 O  py         
    14      0.241981  2 C  px                15     -0.217386  2 C  py         
     9     -0.216007  1 O  px                10      0.194052  1 O  py         

 Vector   13  Occ=0.000000D+00  E= 3.586815D-01  Symmetry=e
              MO Center=  2.4D-01,  2.0D-01,  8.2D-01, r^2= 3.4D+00
   Bfn.  Coefficient  Atom+Function         Bfn.  Coefficient  Atom+Function  
  ----- ------------  ---------------      ----- ------------  ---------------
    21      2.020004  3 H  s                 18     -1.186798  2 C  py         
    23     -1.103664  4 H  s                 17     -1.066173  2 C  px         
    25     -0.916340  5 H  s                  7      0.287739  1 O  py         
     6      0.258494  1 O  px                15      0.241981  2 C  py         
    14      0.217386  2 C  px                10     -0.216007  1 O  py         

 Vector   14  Occ=0.000000D+00  E= 3.960364D-01  Symmetry=a1
              MO Center= -2.8D-16,  2.8D-16,  4.1D-01, r^2= 3.5D+00
   Bfn.  Coefficient  Atom+Function         Bfn.  Coefficient  Atom+Function  
  ----- ------------  ---------------      ----- ------------  ---------------
    13      1.589915  2 C  s                 19     -1.112439  2 C  pz         
     2     -1.055191  1 O  s                  8     -0.810001  1 O  pz         
    21     -0.569446  3 H  s                 23     -0.569446  4 H  s          
    25     -0.569446  5 H  s                 11      0.563387  1 O  pz         
     5     -0.289948  1 O  pz                12     -0.228209  2 C  s          

 Vector   15  Occ=0.000000D+00  E= 8.066899D-01  Symmetry=e
              MO Center=  1.3D-01,  1.8D-01,  4.8D-01, r^2= 2.6D+00
   Bfn.  Coefficient  Atom+Function         Bfn.  Coefficient  Atom+Function  
  ----- ------------  ---------------      ----- ------------  ---------------
    18      1.454898  2 C  py                17     -1.247227  2 C  px         
    15      0.624906  2 C  py                14     -0.535708  2 C  px         
    22      0.398441  4 H  s                 23      0.380306  4 H  s          
    24     -0.364585  5 H  s                 25     -0.347990  5 H  s          
    10     -0.339690  1 O  py                 9      0.291203  1 O  px         

 Vector   16  Occ=0.000000D+00  E= 8.066899D-01  Symmetry=e
              MO Center= -1.3D-01, -1.8D-01,  4.8D-01, r^2= 2.6D+00
   Bfn.  Coefficient  Atom+Function         Bfn.  Coefficient  Atom+Function  
  ----- ------------  ---------------      ----- ------------  ---------------
    17      1.454898  2 C  px                18      1.247227  2 C  py         
    14      0.624906  2 C  px                15      0.535708  2 C  py         
    20     -0.440533  3 H  s                 21     -0.420482  3 H  s          
     9     -0.339690  1 O  px                10     -0.291203  1 O  py         
    24      0.249588  5 H  s                 25      0.238227  5 H  s          

 Vector   17  Occ=0.000000D+00  E= 8.419181D-01  Symmetry=a1
              MO Center=  4.0D-17,  5.2D-17,  3.1D-01, r^2= 1.4D+00
   Bfn.  Coefficient  Atom+Function         Bfn.  Coefficient  Atom+Function  
  ----- ------------  ---------------      ----- ------------  ---------------
    16      1.070120  2 C  pz                19      1.040128  2 C  pz         
    13      0.487376  2 C  s                  5     -0.388829  1 O  pz         
    12     -0.320322  2 C  s                  2      0.284404  1 O  s          
    21     -0.278083  3 H  s                 23     -0.278083  4 H  s          
    25     -0.278083  5 H  s                  8     -0.243465  1 O  pz         


 center of mass
 --------------
 x =   0.00000000 y =   0.00000000 z =  -0.20378955

 moments of inertia (a.u.)
 ------------------
          69.898432766559          -0.000000000000          -0.000000000000
          -0.000000000000          69.898432766559          -0.000000000000
          -0.000000000000          -0.000000000000          10.977894651212

  Mulliken analysis of the total density
  --------------------------------------

    Atom       Charge   Shell Charges
 -----------   ------   -------------------------------------------------------
    1 O    6     7.13   0.83  1.06  2.68  2.23  0.33
    2 C    4     4.09   0.89  0.33  1.98  0.89
    3 H    1     0.93   0.56  0.36
    4 H    1     0.93   0.56  0.36
    5 H    1     0.93   0.56  0.36

       Multipole analysis of the density wrt the origin
       ------------------------------------------------

     L   x y z        total         open         nuclear
     -   - - -        -----         ----         -------
     0   0 0 0     -1.000000      0.000000     13.000000

     1   1 0 0      0.000000      0.000000      0.000000
     1   0 1 0     -0.000000      0.000000      0.000000
     1   0 0 1      2.211010      0.000000      0.606518

     2   2 0 0    -11.853257      0.000000      5.446330
     2   1 1 0     -0.000000      0.000000      0.000000
     2   1 0 1      0.000000      0.000000      0.000000
     2   0 2 0    -11.853257      0.000000      5.446330
     2   0 1 1     -0.000000      0.000000     -0.000000
     2   0 0 2    -15.718794      0.000000     30.719556


 Parallel integral file used       4 records with       0 large values

                              NWChem Gradients Module
                              -----------------------



  wavefunction    =   RHF     

  Using symmetry


                         RHF ENERGY GRADIENTS

    atom               coordinates                        gradient
                 x          y          z           x          y          z
   1 o       0.000000   0.000000  -1.584080   -0.000000   0.000000   0.000121
   2 c       0.000000   0.000000   1.107568    0.000000   0.000000   0.001099
   3 h       1.347384   1.347384   1.893575   -0.000068  -0.000068  -0.000407
   4 h       0.493177  -1.840561   1.893575   -0.000025   0.000093  -0.000407
   5 h      -1.840561   0.493177   1.893575    0.000093  -0.000025  -0.000407

                 ----------------------------------------
                 |  Time  |  1-e(secs)   |  2-e(secs)   |
                 ----------------------------------------
                 |  CPU   |       0.01   |       0.05   |
                 ----------------------------------------
                 |  WALL  |       0.01   |       0.05   |
                 ----------------------------------------

  Step       Energy      Delta E   Gmax     Grms     Xrms     Xmax   Walltime
  ---- ---------------- -------- -------- -------- -------- -------- --------
@    5     -23.04687455  1.0D-06  0.00024  0.00019  0.00047  0.00116      3.3
                                     ok       ok       ok       ok  



                                Z-matrix (autoz)
                                -------- 

 Units are Angstrom for bonds and degrees for angles

      Type          Name      I     J     K     L     M      Value     Gradient
      ----------- --------  ----- ----- ----- ----- ----- ---------- ----------
    1 Stretch                  1     2                       1.42436   -0.00012
    2 Stretch                  2     3                       1.09076   -0.00024
    3 Stretch                  2     4                       1.09076   -0.00024
    4 Stretch                  2     5                       1.09076   -0.00024
    5 Bend                     1     2     3               112.41599   -0.00017
    6 Bend                     1     2     4               112.41599   -0.00017
    7 Bend                     1     2     5               112.41599   -0.00017
    8 Bend                     3     2     4               106.37262    0.00018
    9 Bend                     3     2     5               106.37262    0.00018
   10 Bend                     4     2     5               106.37262    0.00018


      ----------------------
      Optimization converged
      ----------------------


  Step       Energy      Delta E   Gmax     Grms     Xrms     Xmax   Walltime
  ---- ---------------- -------- -------- -------- -------- -------- --------
@    5     -23.04687455  1.0D-06  0.00024  0.00019  0.00047  0.00116      3.3
                                     ok       ok       ok       ok  



                                Z-matrix (autoz)
                                -------- 

 Units are Angstrom for bonds and degrees for angles

      Type          Name      I     J     K     L     M      Value     Gradient
      ----------- --------  ----- ----- ----- ----- ----- ---------- ----------
    1 Stretch                  1     2                       1.42436   -0.00012
    2 Stretch                  2     3                       1.09076   -0.00024
    3 Stretch                  2     4                       1.09076   -0.00024
    4 Stretch                  2     5                       1.09076   -0.00024
    5 Bend                     1     2     3               112.41599   -0.00017
    6 Bend                     1     2     4               112.41599   -0.00017
    7 Bend                     1     2     5               112.41599   -0.00017
    8 Bend                     3     2     4               106.37262    0.00018
    9 Bend                     3     2     5               106.37262    0.00018
   10 Bend                     4     2     5               106.37262    0.00018



                         Geometry "geometry" -> "geometry"
                         ---------------------------------

 Output coordinates in angstroms (scale by  1.889725989 to convert to a.u.)

  No.       Tag          Charge          X              Y              Z
 ---- ---------------- ---------- -------------- -------------- --------------
    1 o                    8.0000     0.00000000     0.00000000    -0.83825889
    2 c                    6.0000     0.00000000     0.00000000     0.58609953
    3 h                    1.0000     0.71300488     0.71300488     1.00203700
    4 h                    1.0000     0.26097790    -0.97398278     1.00203700
    5 h                    1.0000    -0.97398278     0.26097790     1.00203700

      Atomic Mass 
      ----------- 

      o                 15.994910
      c                 12.000000
      h                  1.007825


 Effective nuclear repulsion energy (a.u.)      33.5267925852

            Nuclear Dipole moment (a.u.) 
            ----------------------------
        X                 Y               Z
 ---------------- ---------------- ----------------
     0.0000000000     0.0000000000    -0.3465057071

      Symmetry information
      --------------------

 Group name             C3v       
 Group number             17
 Group order               6
 No. of unique centers     3

      Symmetry unique atoms

     1    2    3


                Final and change from initial internal coordinates
                --------------------------------------------------



                                Z-matrix (autoz)
                                -------- 

 Units are Angstrom for bonds and degrees for angles

      Type          Name      I     J     K     L     M      Value       Change
      ----------- --------  ----- ----- ----- ----- ----- ---------- ----------
    1 Stretch                  1     2                       1.42436    0.07095
    2 Stretch                  2     3                       1.09076   -0.01020
    3 Stretch                  2     4                       1.09076   -0.01020
    4 Stretch                  2     5                       1.09076   -0.01020
    5 Bend                     1     2     3               112.41599   -0.90199
    6 Bend                     1     2     4               112.41599   -0.90199
    7 Bend                     1     2     5               112.41599   -0.90199
    8 Bend                     3     2     4               106.37262    1.00724
    9 Bend                     3     2     5               106.37262    1.00724
   10 Bend                     4     2     5               106.37262    1.00724

 ==============================================================================
                                internuclear distances
 ------------------------------------------------------------------------------
       center one      |      center two      | atomic units |  angstroms
 ------------------------------------------------------------------------------
    2 c                |   1 o                |     2.69165  |     1.42436
    3 h                |   2 c                |     2.06124  |     1.09076
    4 h                |   2 c                |     2.06124  |     1.09076
    5 h                |   2 c                |     2.06124  |     1.09076
 ------------------------------------------------------------------------------
                         number of included internuclear distances:          4
 ==============================================================================



 ==============================================================================
                                 internuclear angles
 ------------------------------------------------------------------------------
        center 1       |       center 2       |       center 3       |  degrees
 ------------------------------------------------------------------------------
    1 o                |   2 c                |   3 h                |   112.42
    1 o                |   2 c                |   4 h                |   112.42
    1 o                |   2 c                |   5 h                |   112.42
    3 h                |   2 c                |   4 h                |   106.37
    3 h                |   2 c                |   5 h                |   106.37
    4 h                |   2 c                |   5 h                |   106.37
 ------------------------------------------------------------------------------
                            number of included internuclear angles:          6
 ==============================================================================




 Task  times  cpu:        3.0s     wall:        3.3s


                                NWChem Input Module
                                -------------------


 Summary of allocated global arrays
-----------------------------------
  No active global arrays



                         GA Statistics for process    0
                         ------------------------------

       create   destroy   get      put      acc     scatter   gather  read&inc
calls: 7483     7483     5.41e+04 1.36e+04 4.25e+04    0        0     7185     
number of processes/call 1.17e+00 1.21e+00 1.10e+00 0.00e+00 0.00e+00
bytes total:             3.04e+07 1.74e+07 1.22e+07 0.00e+00 0.00e+00 5.75e+04
bytes remote:            4.87e+06 1.48e+06 3.60e+06 0.00e+00 0.00e+00 0.00e+00
Max memory consumed for GA by this process: 44432 bytes

MA_summarize_allocated_blocks: starting scan ...
MA_summarize_allocated_blocks: scan completed: 0 heap blocks, 0 stack blocks
MA usage statistics:

	allocation statistics:
					      heap	     stack
					      ----	     -----
	current number of blocks	         0	         0
	maximum number of blocks	        43	        32
	current total bytes		         0	         0
	maximum total bytes		   1085768	  22509704
	maximum total K-bytes		      1086	     22510
	maximum total M-bytes		         2	        23


                                     CITATION
                                     --------
                Please cite the following reference when publishing
                           results obtained with NWChem:

                 M. Valiev, E.J. Bylaska, N. Govind, K. Kowalski,
              T.P. Straatsma, H.J.J. van Dam, D. Wang, J. Nieplocha,
                        E. Apra, T.L. Windus, W.A. de Jong
                 "NWChem: a comprehensive and scalable open-source
                  solution for large scale molecular simulations"
                      Comput. Phys. Commun. 181, 1477 (2010)
                           doi:10.1016/j.cpc.2010.04.018

                                      AUTHORS
                                      -------
          E. Apra, E. J. Bylaska, W. A. de Jong, N. Govind, K. Kowalski,
       T. P. Straatsma, M. Valiev, H. J. J. van Dam, D. Wang, T. L. Windus,
        J. Hammond, J. Autschbach, K. Bhaskaran-Nair, J. Brabec, K. Lopata,
       S. A. Fischer, S. Krishnamoorthy, W. Ma, M. Klemm, O. Villa, Y. Chen,
    V. Anisimov, F. Aquino, S. Hirata, M. T. Hackler, V. Konjkov, T. Risthaus,
       M. Malagoli, A. Marenich, A. Otero-de-la-Roza, J. Mullin, P. Nichols,
      R. Peverati, J. Pittner, Y. Zhao, P.-D. Fan, A. Fonari, M. Williamson,
      R. J. Harrison, J. R. Rehr, M. Dupuis, D. Silverstein, D. M. A. Smith,
            J. Nieplocha, V. Tipparaju, M. Krishnan, B. E. Van Kuiken,
        A. Vazquez-Mayagoitia, L. Jensen, M. Swart, Q. Wu, T. Van Voorhis,
     A. A. Auer, M. Nooijen, L. D. Crosby, E. Brown, G. Cisneros, G. I. Fann,
   H. Fruchtl, J. Garza, K. Hirao, R. A. Kendall, J. A. Nichols, K. Tsemekhman,
    K. Wolinski, J. Anchell, D. E. Bernholdt, P. Borowski, T. Clark, D. Clerc,
   H. Dachsel, M. J. O. Deegan, K. Dyall, D. Elwood, E. Glendening, M. Gutowski,
   A. C. Hess, J. Jaffe, B. G. Johnson, J. Ju, R. Kobayashi, R. Kutteh, Z. Lin,
   R. Littlefield, X. Long, B. Meng, T. Nakajima, S. Niu, L. Pollack, M. Rosing,
   K. Glaesemann, G. Sandrone, M. Stave, H. Taylor, G. Thomas, J. H. van Lenthe,
                               A. T. Wong, Z. Zhang.

 Total times  cpu:        3.0s     wall:        3.3s
