All connections between all procs tested: SUCCESS
 argument  1 = cosmo_h3co_ecp.nw



============================== echo of input deck ==============================
echo

start h3co_dat

geometry
    o      0.00000000     0.00000000     0.27851507
    c      0.00000000     0.00000000     1.63192657
    h      0.26167571    -0.97658705     2.06772417
    h     -0.97658705     0.26167571     2.06772417
    h      0.71491134     0.71491134     2.06772417
end
charge -1

basis
  h library 6-31g*
  c library "Stuttgart RLC ECP"
  o library "Stuttgart RLC ECP"
end

ecp
  c library "Stuttgart RLC ECP"
  o library "Stuttgart RLC ECP"
end

cosmo
  minbem 3
  maxbem 5
end

task scf optimize
================================================================================


                                         
                                         


             Northwest Computational Chemistry Package (NWChem) 6.1.1
             --------------------------------------------------------


                    Environmental Molecular Sciences Laboratory
                       Pacific Northwest National Laboratory
                                Richland, WA 99352

                              Copyright (c) 1994-2012
                       Pacific Northwest National Laboratory
                            Battelle Memorial Institute

             NWChem is an open-source computational chemistry package
                        distributed under the terms of the
                      Educational Community License (ECL) 2.0
             A copy of the license is included with this distribution
                              in the LICENSE.TXT file

                                  ACKNOWLEDGMENT
                                  --------------

            This software and its documentation were developed at the
            EMSL at Pacific Northwest National Laboratory, a multiprogram
            national laboratory, operated for the U.S. Department of Energy
            by Battelle under Contract Number DE-AC05-76RL01830. Support
            for this work was provided by the Department of Energy Office
            of Biological and Environmental Research, Office of Basic
            Energy Sciences, and the Office of Advanced Scientific Computing.


           Job information
           ---------------

    hostname        = arcen
    program         = ../../../bin/LINUX64/nwchem
    date            = Wed Aug 22 23:59:30 2012

    compiled        = Wed_Aug_22_23:25:59_2012
    source          = /home/d3y133/nwchem-dev/nwchem-trunk
    nwchem branch   = Development
    nwchem revision = 22762:22764M
    ga revision     = 10078M
    input           = cosmo_h3co_ecp.nw
    prefix          = h3co_dat.
    data base       = ./h3co_dat.db
    status          = startup
    nproc           =        1
    time left       =     -1s



           Memory information
           ------------------

    heap     =   13107201 doubles =    100.0 Mbytes
    stack    =   13107201 doubles =    100.0 Mbytes
    global   =   26214400 doubles =    200.0 Mbytes (distinct from heap & stack)
    total    =   52428802 doubles =    400.0 Mbytes
    verify   = yes
    hardfail = no 


           Directory information
           ---------------------

  0 permanent = .
  0 scratch   = .




                                NWChem Input Module
                                -------------------



 Scaling coordinates for geometry "geometry" by  1.889725989
 (inverse scale =  0.529177249)

 C3V symmetry detected

          ------
          auto-z
          ------
  Looking for out-of-plane bends


                             Geometry "geometry" -> ""
                             -------------------------

 Output coordinates in angstroms (scale by  1.889725989 to convert to a.u.)

  No.       Tag          Charge          X              Y              Z
 ---- ---------------- ---------- -------------- -------------- --------------
    1 o                    8.0000     0.00000000     0.00000000     0.79341743
    2 c                    6.0000     0.00000000     0.00000000    -0.55999407
    3 h                    1.0000     0.71491134     0.71491134    -0.99579167
    4 h                    1.0000    -0.97658705     0.26167571    -0.99579167
    5 h                    1.0000     0.26167571    -0.97658705    -0.99579167

      Atomic Mass 
      ----------- 

      o                 15.994910
      c                 12.000000
      h                  1.007825


 Effective nuclear repulsion energy (a.u.)      34.5058725513

            Nuclear Dipole moment (a.u.) 
            ----------------------------
        X                 Y               Z
 ---------------- ---------------- ----------------
     0.0000000000     0.0000000000     0.0000000000

      Symmetry information
      --------------------

 Group name             C3v       
 Group number             17
 Group order               6
 No. of unique centers     3

      Symmetry unique atoms

     1    2    3



                                Z-matrix (autoz)
                                -------- 

 Units are Angstrom for bonds and degrees for angles

      Type          Name      I     J     K     L     M      Value
      ----------- --------  ----- ----- ----- ----- ----- ----------
    1 Stretch                  1     2                       1.35341
    2 Stretch                  2     3                       1.10096
    3 Stretch                  2     4                       1.10096
    4 Stretch                  2     5                       1.10096
    5 Bend                     1     2     3               113.31798
    6 Bend                     1     2     4               113.31798
    7 Bend                     1     2     5               113.31798
    8 Bend                     3     2     4               105.36538
    9 Bend                     3     2     5               105.36538
   10 Bend                     4     2     5               105.36538


            XYZ format geometry
            -------------------
     5
 geometry
 o                     0.00000000     0.00000000     0.79341743
 c                     0.00000000     0.00000000    -0.55999407
 h                     0.71491134     0.71491134    -0.99579167
 h                    -0.97658705     0.26167571    -0.99579167
 h                     0.26167571    -0.97658705    -0.99579167

 ==============================================================================
                                internuclear distances
 ------------------------------------------------------------------------------
       center one      |      center two      | atomic units |  angstroms
 ------------------------------------------------------------------------------
    2 c                |   1 o                |     2.55758  |     1.35341
    3 h                |   2 c                |     2.08052  |     1.10096
    4 h                |   2 c                |     2.08052  |     1.10096
    5 h                |   2 c                |     2.08052  |     1.10096
 ------------------------------------------------------------------------------
                         number of included internuclear distances:          4
 ==============================================================================



 ==============================================================================
                                 internuclear angles
 ------------------------------------------------------------------------------
        center 1       |       center 2       |       center 3       |  degrees
 ------------------------------------------------------------------------------
    1 o                |   2 c                |   3 h                |   113.32
    1 o                |   2 c                |   4 h                |   113.32
    1 o                |   2 c                |   5 h                |   113.32
    3 h                |   2 c                |   4 h                |   105.37
    3 h                |   2 c                |   5 h                |   105.37
    4 h                |   2 c                |   5 h                |   105.37
 ------------------------------------------------------------------------------
                            number of included internuclear angles:          6
 ==============================================================================



                      Basis "ao basis" -> "" (cartesian)
                      -----
  h (Hydrogen)
  ------------
            Exponent  Coefficients 
       -------------- ---------------------------------------------------------
  1 S  1.87311370E+01  0.033495
  1 S  2.82539370E+00  0.234727
  1 S  6.40121700E-01  0.813757

  2 S  1.61277800E-01  1.000000

  c (Carbon)
  ----------
            Exponent  Coefficients 
       -------------- ---------------------------------------------------------
  1 S  2.26310100E+00  0.496548
  1 S  1.77318600E+00 -0.422391
  1 S  4.08619000E-01 -0.599356

  2 S  1.39175000E-01  1.000000

  3 P  8.38302500E+00 -0.038544
  3 P  1.99313200E+00 -0.203185
  3 P  5.59543000E-01 -0.498176

  4 P  1.56126000E-01  1.000000

  o (Oxygen)
  ----------
            Exponent  Coefficients 
       -------------- ---------------------------------------------------------
  1 S  4.71055180E+01 -0.014408
  1 S  5.91134600E+00  0.129568
  1 S  9.76483000E-01 -0.563118

  2 S  2.96070000E-01  1.000000

  3 P  1.66922190E+01  0.044856
  3 P  3.90070200E+00  0.222613
  3 P  1.07825300E+00  0.500188

  4 P  2.84189000E-01  1.000000

  5 P  7.02000000E-02  1.000000



 Summary of "ao basis" -> "" (cartesian)
 ------------------------------------------------------------------------------
       Tag                 Description            Shells   Functions and Types
 ---------------- ------------------------------  ------  ---------------------
 h                           6-31g*                  2        2   2s
 c                     Stuttgart RLC ECP             4        8   2s2p
 o                     Stuttgart RLC ECP             5       11   2s3p



 **** WARNING Zero Coefficient **** on atom "               c"
 angular momentum value:-1  standard basis set name: "Stuttgart RLC ECP"
 input line that generated warning:
  1497: 2      1.000000000            0.000000000
  
 Local ECP potential is zero and ignored
  

 **** WARNING Zero Coefficient **** on atom "               o"
 angular momentum value:-1  standard basis set name: "Stuttgart RLC ECP"
 input line that generated warning:
  1519: 2      1.000000000            0.000000000
  
 Local ECP potential is zero and ignored
  
                 ECP       "ecp basis" -> "" (cartesian)
                -----
  c (Carbon) Replaces     2 electrons
  -----------------------------------
          R-exponent    Exponent     Coefficients 
         ------------ ---------------------------------------------------------
  1 U-s      2.00        6.401052      33.121638

  2 U-p      2.00        7.307747      -1.986257

  3 U-d      2.00        5.961796      -9.454318

  o (Oxygen) Replaces     2 electrons
  -----------------------------------
          R-exponent    Exponent     Coefficients 
         ------------ ---------------------------------------------------------
  1 U-s      2.00       10.445670      50.771069

  2 U-p      2.00       18.045174      -4.903551

  3 U-d      2.00        8.164798      -3.312124



                           NWChem Geometry Optimization
                           ----------------------------


 maximum gradient threshold         (gmax) =   0.000450
 rms gradient threshold             (grms) =   0.000300
 maximum cartesian step threshold   (xmax) =   0.001800
 rms cartesian step threshold       (xrms) =   0.001200
 fixed trust radius                (trust) =   0.300000
 maximum step size to saddle      (sadstp) =   0.100000
 energy precision                  (eprec) =   1.0D-07
 maximum number of steps          (nptopt) =   20
 initial hessian option           (inhess) =    0
 line search option               (linopt) =    1
 hessian update option            (modupd) =    1
 saddle point option              (modsad) =    0
 initial eigen-mode to follow     (moddir) =    0
 initial variable to follow       (vardir) =    0
 follow first negative mode     (firstneg) =    T
 apply conjugacy                    (opcg) =    F
 source of zmatrix                         =   autoz   


          -------------------
          Energy Minimization
          -------------------


 Names of Z-matrix variables 
    1              2              3              4              5         
    6              7              8              9             10         

 Variables with the same non-blank name are constrained to be equal


 Using old Hessian from previous optimization

          --------
          Step   0
          --------


                         Geometry "geometry" -> "geometry"
                         ---------------------------------

 Output coordinates in angstroms (scale by  1.889725989 to convert to a.u.)

  No.       Tag          Charge          X              Y              Z
 ---- ---------------- ---------- -------------- -------------- --------------
    1 o                    8.0000     0.00000000     0.00000000     0.79341743
    2 c                    6.0000     0.00000000     0.00000000    -0.55999407
    3 h                    1.0000     0.71491134     0.71491134    -0.99579167
    4 h                    1.0000    -0.97658705     0.26167571    -0.99579167
    5 h                    1.0000     0.26167571    -0.97658705    -0.99579167

      Atomic Mass 
      ----------- 

      o                 15.994910
      c                 12.000000
      h                  1.007825


 Effective nuclear repulsion energy (a.u.)      34.5058725513

            Nuclear Dipole moment (a.u.) 
            ----------------------------
        X                 Y               Z
 ---------------- ---------------- ----------------
     0.0000000000     0.0000000000     0.0000000000

      Symmetry information
      --------------------

 Group name             C3v       
 Group number             17
 Group order               6
 No. of unique centers     3

      Symmetry unique atoms

     1    2    3

  geom_rtdb_load: not found or rtdb corrupt: cosmo efc geom -> cosmo efc geom
 geom_rtdb_load: open geometies:  3
  1 geom_rtdb_load: "geometry" -> "geometry"
  2 geom_rtdb_load: "geometry" -> "geometry"
  3 geom_rtdb_load: "cosmo efc geom" -> "cosmo efc geom"
 geom_rtdb_load: geometries in last accessed data base:  2
 geometry
 driverinitial

          ---------------
          -cosmo- solvent
          ---------------
 dielectric constant -eps-  =  78.40
 charge screening approach  =   2
 screen = (eps-1)/(eps    ) =   0.98724
 -lineq- algorithm          =   1
 -bem- low  level           =   3
 -bem- high level           =   5
 -bem- from -octahedral-
 solvent radius (ang.)      =   0.000
 atomic radii = 
 --------------
    1  6.000  1.720
    2  4.000  2.000
    3  1.000  1.300
    4  1.000  1.300
    5  1.000  1.300

 solvent accessible surface
 --------------------------

 ---------- ATOMIC COORDINATES (A.U.) ------------ VDWR(ANG.) --
     1    0.00000000    0.00000000    1.49934154     1.720
     2    0.00000000    0.00000000   -1.05823535     2.000
     3    1.35098654    1.35098654   -1.88177340     1.300
     4   -1.84548193    0.49449539   -1.88177340     1.300
     5    0.49449539   -1.84548193   -1.88177340     1.300
 number of segments per atom =        128
 number of   points per atom =       2560
 atom (   nspa,  nppa )
 ----------------------
    1 (     92,  1548 )    1548
    2 (     96,  1226 )    1226
    3 (     50,   807 )     807
    4 (     52,   790 )     790
    5 (     52,   790 )     790
 number of -cosmo- surface points =      342
 molecular surface =     66.355 angstrom**2
 molecular volume  =     37.518 angstrom**3
 G(cav/disp)       =      1.192 kcal/mol
 ...... end of -cosmo- initialization ......


                                 NWChem SCF Module
                                 -----------------



  ao basis        = "ao basis"
  functions       =    25
  atoms           =     5
  closed shells   =     7
  open shells     =     0
  charge          =  -1.00
  wavefunction    = RHF 
  input vectors   = atomic
  output vectors  = ./h3co_dat.movecs
  use symmetry    = T
  symmetry adapt  = T


 Summary of "ao basis" -> "ao basis" (cartesian)
 ------------------------------------------------------------------------------
       Tag                 Description            Shells   Functions and Types
 ---------------- ------------------------------  ------  ---------------------
 h                           6-31g*                  2        2   2s
 c                     Stuttgart RLC ECP             4        8   2s2p
 o                     Stuttgart RLC ECP             5       11   2s3p


      Symmetry analysis of basis
      --------------------------

        a1         11
        a2          0
        e          14


 Forming initial guess at       0.1s


      Superposition of Atomic Density Guess
      -------------------------------------

 Sum of atomic energies:         -24.77825633

 Renormalizing density from      13.00 to     14

      Non-variational initial energy
      ------------------------------

 Total energy =     -23.349498
 1-e energy   =     -82.297500
 2-e energy   =      38.254875
 HOMO         =       0.074599
 LUMO         =       0.383067


      Symmetry analysis of molecular orbitals - initial
      -------------------------------------------------

  Numbering of irreducible representations: 

     1 a1          2 a2          3 e       

  Orbital symmetries:

     1 a1          2 a1          3 e           4 e           5 a1      
     6 e           7 e           8 a1          9 e          10 e       
    11 a1         12 e          13 e          14 a1         15 e       
    16 e          17 a1      


 Starting SCF solution at       0.1s



 ----------------------------------------------
         Quadratically convergent ROHF

 Convergence threshold     :          1.000E-04
 Maximum no. of iterations :           30
 Final Fock-matrix accuracy:          1.000E-07
 ----------------------------------------------

     COSMO gas phase

 #quartets = 2.892D+03 #integrals = 1.727D+04 #direct =  0.0% #cached =100.0%


 Integral file          = ./h3co_dat.aoints.0
 Record size in doubles =  65536        No. of integs per rec  =  43688
 Max. records in memory =      2        Max. records in file   =   3238
 No. of bits per label  =      8        No. of bits per value  =     64


              iter       energy          gnorm     gmax       time
             ----- ------------------- --------- --------- --------
                 1      -22.8521756376  8.22D-01  4.41D-01      0.1
                 2      -22.9031813836  1.71D-01  8.25D-02      0.1
                 3      -22.9057263968  9.64D-03  3.84D-03      0.1
                 4      -22.9057432440  4.79D-05  2.23D-05      0.1
     COSMO solvation phase

              iter       energy          gnorm     gmax       time
             ----- ------------------- --------- --------- --------
                 1      -23.0407529571  1.65D-01  7.61D-02      1.8
                 2      -23.0454526960  3.01D-02  1.47D-02      3.4
                 3      -23.0456620551  5.55D-03  2.59D-03      4.9
                 4      -23.0456704696  9.90D-04  4.48D-04      6.5
                 5      -23.0456717342  1.83D-04  8.57D-05      6.9
                 6      -23.0456717844  3.25D-05  1.54D-05      8.0
 
                  COSMO solvation results
                  -----------------------
 
                 gas phase energy =       -22.9057432440
                 sol phase energy =       -23.0456717844
 (electrostatic) solvation energy =         0.1399285404 (   87.81 kcal/mol)


       Final RHF  results 
       ------------------ 

         Total SCF energy =    -23.045671784396
      One-electron energy =    -85.374495152251
      Two-electron energy =     38.290668628307
 Nuclear repulsion energy =     20.693127128192

        Time for solution =      7.9s



       Symmetry analysis of molecular orbitals - final
       -----------------------------------------------

  Numbering of irreducible representations: 

     1 a1          2 a2          3 e       

  Orbital symmetries:

     1 a1          2 a1          3 e           4 e           5 a1      
     6 e           7 e           8 a1          9 e          10 e       
    11 a1         12 e          13 e          14 a1         15 e       
    16 e          17 a1      

             Final eigenvalues
             -----------------

              1      
    1   -1.2380
    2   -0.8556
    3   -0.5677
    4   -0.5677
    5   -0.4946
    6   -0.3365
    7   -0.3365
    8    0.1947
    9    0.2132
   10    0.2132
   11    0.2854
   12    0.3609
   13    0.3609
   14    0.4064
   15    0.8162
   16    0.8162
   17    0.9013

                       ROHF Final Molecular Orbital Analysis
                       -------------------------------------

 Vector    1  Occ=2.000000D+00  E=-1.238042D+00  Symmetry=a1
              MO Center=  7.6D-19,  1.3D-18,  4.4D-01, r^2= 6.3D-01
   Bfn.  Coefficient  Atom+Function         Bfn.  Coefficient  Atom+Function  
  ----- ------------  ---------------      ----- ------------  ---------------
     2      0.440247  1 O  s                  1     -0.391863  1 O  s          
    12     -0.242625  2 C  s          

 Vector    2  Occ=2.000000D+00  E=-8.556361D-01  Symmetry=a1
              MO Center=  1.3D-17,  1.6D-16, -5.8D-01, r^2= 1.4D+00
   Bfn.  Coefficient  Atom+Function         Bfn.  Coefficient  Atom+Function  
  ----- ------------  ---------------      ----- ------------  ---------------
    12      0.420986  2 C  s                  2      0.287391  1 O  s          
    13     -0.198515  2 C  s                  1     -0.187543  1 O  s          
    16     -0.151214  2 C  pz                20     -0.150211  3 H  s          
    22     -0.150211  4 H  s                 24     -0.150211  5 H  s          

 Vector    3  Occ=2.000000D+00  E=-5.676703D-01  Symmetry=e
              MO Center= -4.9D-03,  1.7D-01, -4.4D-01, r^2= 1.5D+00
   Bfn.  Coefficient  Atom+Function         Bfn.  Coefficient  Atom+Function  
  ----- ------------  ---------------      ----- ------------  ---------------
    14      0.374148  2 C  px                 3     -0.228473  1 O  px         
    20     -0.219864  3 H  s                 17     -0.192635  2 C  px         
    22      0.191991  4 H  s                 21     -0.160559  3 H  s          
     6     -0.151455  1 O  px         

 Vector    4  Occ=2.000000D+00  E=-5.676703D-01  Symmetry=e
              MO Center=  4.9D-03, -1.7D-01, -4.4D-01, r^2= 1.5D+00
   Bfn.  Coefficient  Atom+Function         Bfn.  Coefficient  Atom+Function  
  ----- ------------  ---------------      ----- ------------  ---------------
    15      0.374148  2 C  py                24      0.237784  5 H  s          
     4     -0.228473  1 O  py                18     -0.192635  2 C  py         
    25      0.173646  5 H  s                  7     -0.151455  1 O  py         

 Vector    5  Occ=2.000000D+00  E=-4.946462D-01  Symmetry=a1
              MO Center= -1.7D-17, -1.4D-17,  5.1D-01, r^2= 1.3D+00
   Bfn.  Coefficient  Atom+Function         Bfn.  Coefficient  Atom+Function  
  ----- ------------  ---------------      ----- ------------  ---------------
     5      0.458765  1 O  pz                16      0.372727  2 C  pz         
     8      0.351361  1 O  pz                 2      0.214206  1 O  s          

 Vector    6  Occ=2.000000D+00  E=-3.364572D-01  Symmetry=e
              MO Center= -1.8D-02,  8.9D-02,  4.1D-01, r^2= 1.6D+00
   Bfn.  Coefficient  Atom+Function         Bfn.  Coefficient  Atom+Function  
  ----- ------------  ---------------      ----- ------------  ---------------
     3      0.505368  1 O  px                 6      0.451180  1 O  px         
    21     -0.259402  3 H  s                 23      0.250633  4 H  s          
    14      0.160217  2 C  px                20     -0.159451  3 H  s          
     9      0.157219  1 O  px                22      0.154060  4 H  s          
     4      0.151673  1 O  py         

 Vector    7  Occ=2.000000D+00  E=-3.364572D-01  Symmetry=e
              MO Center=  1.8D-02, -8.9D-02,  4.1D-01, r^2= 1.6D+00
   Bfn.  Coefficient  Atom+Function         Bfn.  Coefficient  Atom+Function  
  ----- ------------  ---------------      ----- ------------  ---------------
     4      0.505368  1 O  py                 7      0.451180  1 O  py         
    25      0.294468  5 H  s                 24      0.181006  5 H  s          
    15      0.160217  2 C  py                10      0.157219  1 O  py         
    23     -0.154828  4 H  s                  3     -0.151673  1 O  px         

 Vector    8  Occ=0.000000D+00  E= 1.947156D-01  Symmetry=a1
              MO Center=  4.5D-17,  5.9D-17,  2.1D+00, r^2= 4.0D+00
   Bfn.  Coefficient  Atom+Function         Bfn.  Coefficient  Atom+Function  
  ----- ------------  ---------------      ----- ------------  ---------------
    11      1.431672  1 O  pz                13      0.630683  2 C  s          
     2     -0.521526  1 O  s                 19      0.268888  2 C  pz         
    21      0.171921  3 H  s                 23      0.171921  4 H  s          
    25      0.171921  5 H  s                  8     -0.164782  1 O  pz         

 Vector    9  Occ=0.000000D+00  E= 2.132017D-01  Symmetry=e
              MO Center= -8.2D-02,  3.6D-02,  9.2D-01, r^2= 6.0D+00
   Bfn.  Coefficient  Atom+Function         Bfn.  Coefficient  Atom+Function  
  ----- ------------  ---------------      ----- ------------  ---------------
     9      1.216129  1 O  px                17     -0.597274  2 C  px         
    23     -0.349870  4 H  s                  6     -0.310808  1 O  px         
    10     -0.229470  1 O  py                21      0.197795  3 H  s          
    25      0.152075  5 H  s          

 Vector   10  Occ=0.000000D+00  E= 2.132017D-01  Symmetry=e
              MO Center=  8.2D-02, -3.6D-02,  9.2D-01, r^2= 6.0D+00
   Bfn.  Coefficient  Atom+Function         Bfn.  Coefficient  Atom+Function  
  ----- ------------  ---------------      ----- ------------  ---------------
    10      1.216129  1 O  py                18     -0.597274  2 C  py         
    25     -0.316194  5 H  s                  7     -0.310808  1 O  py         
    21      0.289798  3 H  s                  9      0.229470  1 O  px         

 Vector   11  Occ=0.000000D+00  E= 2.853923D-01  Symmetry=a1
              MO Center=  1.9D-16,  1.1D-16, -8.5D-01, r^2= 3.7D+00
   Bfn.  Coefficient  Atom+Function         Bfn.  Coefficient  Atom+Function  
  ----- ------------  ---------------      ----- ------------  ---------------
    13      2.513578  2 C  s                 21     -1.506784  3 H  s          
    23     -1.506784  4 H  s                 25     -1.506784  5 H  s          
    19     -1.223177  2 C  pz                 2      0.333243  1 O  s          
    12     -0.260832  2 C  s                 11     -0.221401  1 O  pz         
    16      0.202763  2 C  pz         

 Vector   12  Occ=0.000000D+00  E= 3.609188D-01  Symmetry=e
              MO Center=  2.9D-01,  5.9D-02, -8.0D-01, r^2= 3.4D+00
   Bfn.  Coefficient  Atom+Function         Bfn.  Coefficient  Atom+Function  
  ----- ------------  ---------------      ----- ------------  ---------------
    21      1.912619  3 H  s                 25     -1.455102  5 H  s          
    18     -1.404118  2 C  py                17     -0.754179  2 C  px         
    23     -0.457516  4 H  s                  7      0.373922  1 O  py         
    15      0.290063  2 C  py                10     -0.263371  1 O  py         
     6      0.200841  1 O  px                14      0.155798  2 C  px         

 Vector   13  Occ=0.000000D+00  E= 3.609188D-01  Symmetry=e
              MO Center= -2.9D-01, -5.9D-02, -8.0D-01, r^2= 3.4D+00
   Bfn.  Coefficient  Atom+Function         Bfn.  Coefficient  Atom+Function  
  ----- ------------  ---------------      ----- ------------  ---------------
    23      1.944355  4 H  s                 17      1.404118  2 C  px         
    25     -1.368398  5 H  s                 18     -0.754179  2 C  py         
    21     -0.575956  3 H  s                  6     -0.373922  1 O  px         
    14     -0.290063  2 C  px                 9      0.263371  1 O  px         
     7      0.200841  1 O  py                15      0.155798  2 C  py         

 Vector   14  Occ=0.000000D+00  E= 4.063693D-01  Symmetry=a1
              MO Center= -3.3D-16,  2.7D-16, -5.0D-01, r^2= 3.4D+00
   Bfn.  Coefficient  Atom+Function         Bfn.  Coefficient  Atom+Function  
  ----- ------------  ---------------      ----- ------------  ---------------
    13      1.737989  2 C  s                 19      1.235619  2 C  pz         
     2     -1.225632  1 O  s                  8      0.780136  1 O  pz         
    21     -0.559602  3 H  s                 23     -0.559602  4 H  s          
    25     -0.559602  5 H  s                 11     -0.536178  1 O  pz         
     5      0.249542  1 O  pz                12     -0.194227  2 C  s          

 Vector   15  Occ=0.000000D+00  E= 8.162381D-01  Symmetry=e
              MO Center= -2.2D-01, -7.2D-02, -4.6D-01, r^2= 2.6D+00
   Bfn.  Coefficient  Atom+Function         Bfn.  Coefficient  Atom+Function  
  ----- ------------  ---------------      ----- ------------  ---------------
    18      1.671907  2 C  py                17      1.028740  2 C  px         
    15      0.718293  2 C  py                14      0.441973  2 C  px         
    21     -0.428109  3 H  s                 20     -0.417379  3 H  s          
    10     -0.403550  1 O  py                25      0.302350  5 H  s          
    24      0.294772  5 H  s                  9     -0.248308  1 O  px         

 Vector   16  Occ=0.000000D+00  E= 8.162381D-01  Symmetry=e
              MO Center=  2.2D-01,  7.2D-02, -4.6D-01, r^2= 2.6D+00
   Bfn.  Coefficient  Atom+Function         Bfn.  Coefficient  Atom+Function  
  ----- ------------  ---------------      ----- ------------  ---------------
    17      1.671907  2 C  px                18     -1.028740  2 C  py         
    14      0.718293  2 C  px                15     -0.441973  2 C  py         
    23      0.421731  4 H  s                 22      0.411161  4 H  s          
     9     -0.403550  1 O  px                25     -0.319775  5 H  s          
    24     -0.311761  5 H  s                 10      0.248308  1 O  py         

 Vector   17  Occ=0.000000D+00  E= 9.013377D-01  Symmetry=a1
              MO Center=  1.0D-17, -3.1D-17, -2.1D-01, r^2= 1.3D+00
   Bfn.  Coefficient  Atom+Function         Bfn.  Coefficient  Atom+Function  
  ----- ------------  ---------------      ----- ------------  ---------------
    16      1.110160  2 C  pz                19      0.942483  2 C  pz         
    13     -0.777398  2 C  s                  5     -0.409847  1 O  pz         
     8     -0.411289  1 O  pz                21      0.361405  3 H  s          
    23      0.361405  4 H  s                 25      0.361405  5 H  s          
    12      0.344289  2 C  s                  1     -0.170540  1 O  s          


 center of mass
 --------------
 x =   0.00000000 y =   0.00000000 z =   0.18032899

 moments of inertia (a.u.)
 ------------------
          64.611309796422           0.000000000000           0.000000000000
           0.000000000000          64.611309796422           0.000000000000
           0.000000000000           0.000000000000          11.036679212476

  Mulliken analysis of the total density
  --------------------------------------

    Atom       Charge   Shell Charges
 -----------   ------   -------------------------------------------------------
    1 O    6     7.09   0.83  1.04  2.71  2.21  0.29
    2 C    4     4.09   0.89  0.32  2.00  0.87
    3 H    1     0.94   0.56  0.38
    4 H    1     0.94   0.56  0.38
    5 H    1     0.94   0.56  0.38

       Multipole analysis of the density wrt the origin
       ------------------------------------------------

     L   x y z        total         open         nuclear
     -   - - -        -----         ----         -------
     0   0 0 0     -1.000000      0.000000     13.000000

     1   1 0 0      0.000000      0.000000      0.000000
     1   0 1 0      0.000000      0.000000      0.000000
     1   0 0 1     -2.021888      0.000000     -0.882212

     2   2 0 0    -11.831824      0.000000      5.475494
     2   1 1 0      0.000000      0.000000      0.000000
     2   1 0 1      0.000000      0.000000      0.000000
     2   0 2 0    -11.831824      0.000000      5.475494
     2   0 1 1      0.000000      0.000000      0.000000
     2   0 0 2    -15.518211      0.000000     28.590812


 Parallel integral file used       1 records with       0 large values

                              NWChem Gradients Module
                              -----------------------



  wavefunction    =   RHF     

  Using symmetry


                         RHF ENERGY GRADIENTS

    atom               coordinates                        gradient
                 x          y          z           x          y          z
   1 o       0.000000   0.000000   1.499342    0.000000   0.000000  -0.051129
   2 c       0.000000   0.000000  -1.058235    0.000000   0.000000  -0.013642
   3 h       1.350987   1.350987  -1.881773    0.021349   0.021349   0.021590
   4 h      -1.845482   0.494495  -1.881773   -0.029164   0.007814   0.021590
   5 h       0.494495  -1.845482  -1.881773    0.007814  -0.029164   0.021590

                 ----------------------------------------
                 |  Time  |  1-e(secs)   |  2-e(secs)   |
                 ----------------------------------------
                 |  CPU   |       0.11   |       0.16   |
                 ----------------------------------------
                 |  WALL  |       0.11   |       0.16   |
                 ----------------------------------------

@ Step       Energy      Delta E   Gmax     Grms     Xrms     Xmax   Walltime
@ ---- ---------------- -------- -------- -------- -------- -------- --------
@    0     -23.04567178  0.0D+00  0.05113  0.02308  0.00000  0.00000      8.3
                                                                    



                                Z-matrix (autoz)
                                -------- 

 Units are Angstrom for bonds and degrees for angles

      Type          Name      I     J     K     L     M      Value     Gradient
      ----------- --------  ----- ----- ----- ----- ----- ---------- ----------
    1 Stretch                  1     2                       1.35341   -0.05113
    2 Stretch                  2     3                       1.10096    0.01918
    3 Stretch                  2     4                       1.10096    0.01918
    4 Stretch                  2     5                       1.10096    0.01918
    5 Bend                     1     2     3               113.31798   -0.01535
    6 Bend                     1     2     4               113.31798   -0.01535
    7 Bend                     1     2     5               113.31798   -0.01535
    8 Bend                     3     2     4               105.36538    0.01736
    9 Bend                     3     2     5               105.36538    0.01736
   10 Bend                     4     2     5               105.36538    0.01736

 Restricting large step in mode    1 eval= 3.2D-02 step=-1.0D+00 new=-3.0D-01

          ---------------
          -cosmo- solvent
          ---------------
 dielectric constant -eps-  =  78.40
 charge screening approach  =   2
 screen = (eps-1)/(eps    ) =   0.98724
 -lineq- algorithm          =   1
 -bem- low  level           =   3
 -bem- high level           =   5
 -bem- from -octahedral-
 solvent radius (ang.)      =   0.000
 atomic radii = 
 --------------
    1  6.000  1.720
    2  4.000  2.000
    3  1.000  1.300
    4  1.000  1.300
    5  1.000  1.300

 solvent accessible surface
 --------------------------

 ---------- ATOMIC COORDINATES (A.U.) ------------ VDWR(ANG.) --
     1    0.00000000    0.00000000    1.59446094     1.720
     2    0.00000000    0.00000000   -1.01277819     2.000
     3    1.27875568    1.27875568   -1.92863225     1.300
     4   -1.74681275    0.46805706   -1.92863225     1.300
     5    0.46805706   -1.74681275   -1.92863225     1.300
 number of segments per atom =        128
 number of   points per atom =       2560
 atom (   nspa,  nppa )
 ----------------------
    1 (     92,  1580 )    1580
    2 (     94,  1254 )    1254
    3 (     44,   771 )     771
    4 (     48,   748 )     748
    5 (     48,   748 )     748
 number of -cosmo- surface points =      326
 molecular surface =     66.374 angstrom**2
 molecular volume  =     37.719 angstrom**3
 G(cav/disp)       =      1.192 kcal/mol
 ...... end of -cosmo- initialization ......


                                 NWChem SCF Module
                                 -----------------



  ao basis        = "ao basis"
  functions       =    25
  atoms           =     5
  closed shells   =     7
  open shells     =     0
  charge          =  -1.00
  wavefunction    = RHF 
  input vectors   = ./h3co_dat.movecs
  output vectors  = ./h3co_dat.movecs
  use symmetry    = T
  symmetry adapt  = T


 Summary of "ao basis" -> "ao basis" (cartesian)
 ------------------------------------------------------------------------------
       Tag                 Description            Shells   Functions and Types
 ---------------- ------------------------------  ------  ---------------------
 h                           6-31g*                  2        2   2s
 c                     Stuttgart RLC ECP             4        8   2s2p
 o                     Stuttgart RLC ECP             5       11   2s3p


      Symmetry analysis of basis
      --------------------------

        a1         11
        a2          0
        e          14


 Forming initial guess at       8.3s


 Loading old vectors from job with title :




      Symmetry analysis of molecular orbitals - initial
      -------------------------------------------------

  Numbering of irreducible representations: 

     1 a1          2 a2          3 e       

  Orbital symmetries:

     1 a1          2 a1          3 e           4 e           5 a1      
     6 e           7 e           8 a1          9 e          10 e       
    11 a1         12 e          13 e          14 a1         15 e       
    16 e          17 a1      


 Starting SCF solution at       8.4s



 ----------------------------------------------
         Quadratically convergent ROHF

 Convergence threshold     :          1.000E-04
 Maximum no. of iterations :           30
 Final Fock-matrix accuracy:          1.000E-07
 ----------------------------------------------

     COSMO gas phase

 #quartets = 2.892D+03 #integrals = 1.727D+04 #direct =  0.0% #cached =100.0%


 Integral file          = ./h3co_dat.aoints.0
 Record size in doubles =  65536        No. of integs per rec  =  43688
 Max. records in memory =      2        Max. records in file   =   3240
 No. of bits per label  =      8        No. of bits per value  =     64


              iter       energy          gnorm     gmax       time
             ----- ------------------- --------- --------- --------
                 1      -22.8959620842  2.19D-01  1.07D-01      8.3
                 2      -22.9022972194  1.08D-01  4.93D-02      8.3
                 3      -22.9031829398  6.62D-03  2.45D-03      8.3
                 4      -22.9031923478  1.63D-05  6.15D-06      8.3
     COSMO solvation phase

              iter       energy          gnorm     gmax       time
             ----- ------------------- --------- --------- --------
                 1      -23.0384207455  1.67D-01  7.67D-02     10.0
                 2      -23.0433470961  3.19D-02  1.62D-02     11.2
                 3      -23.0436101211  6.23D-03  3.04D-03     12.4
                 4      -23.0436259925  1.17D-03  5.52D-04     13.5
                 5      -23.0436277940  2.23D-04  1.04D-04     14.1
                 6      -23.0436280650  4.25D-05  2.10D-05     14.4
 
                  COSMO solvation results
                  -----------------------
 
                 gas phase energy =       -22.9031923478
                 sol phase energy =       -23.0436280650
 (electrostatic) solvation energy =         0.1404357172 (   88.12 kcal/mol)


       Final RHF  results 
       ------------------ 

         Total SCF energy =    -23.043628065011
      One-electron energy =    -85.215223557885
      Two-electron energy =     38.200500835922
 Nuclear repulsion energy =     20.627934199835

        Time for solution =      6.1s



       Symmetry analysis of molecular orbitals - final
       -----------------------------------------------

  Numbering of irreducible representations: 

     1 a1          2 a2          3 e       

  Orbital symmetries:

     1 a1          2 a1          3 e           4 e           5 a1      
     6 e           7 e           8 a1          9 e          10 e       
    11 a1         12 e          13 e          14 a1         15 e       
    16 e          17 a1      

             Final eigenvalues
             -----------------

              1      
    1   -1.2251
    2   -0.8788
    3   -0.5627
    4   -0.5627
    5   -0.4950
    6   -0.3414
    7   -0.3414
    8    0.1952
    9    0.2150
   10    0.2150
   11    0.2908
   12    0.3685
   13    0.3685
   14    0.3954
   15    0.8057
   16    0.8057
   17    0.8776

                       ROHF Final Molecular Orbital Analysis
                       -------------------------------------

 Vector    1  Occ=2.000000D+00  E=-1.225057D+00  Symmetry=a1
              MO Center=  4.3D-19, -1.7D-18,  5.0D-01, r^2= 6.5D-01
   Bfn.  Coefficient  Atom+Function         Bfn.  Coefficient  Atom+Function  
  ----- ------------  ---------------      ----- ------------  ---------------
     2      0.448498  1 O  s                  1     -0.394349  1 O  s          
    12     -0.237290  2 C  s          

 Vector    2  Occ=2.000000D+00  E=-8.788102D-01  Symmetry=a1
              MO Center= -5.6D-18, -5.2D-18, -6.1D-01, r^2= 1.3D+00
   Bfn.  Coefficient  Atom+Function         Bfn.  Coefficient  Atom+Function  
  ----- ------------  ---------------      ----- ------------  ---------------
    12      0.417800  2 C  s                  2      0.266776  1 O  s          
    13     -0.190232  2 C  s                  1     -0.182385  1 O  s          
    16     -0.166307  2 C  pz                20     -0.154073  3 H  s          
    22     -0.154073  4 H  s                 24     -0.154073  5 H  s          

 Vector    3  Occ=2.000000D+00  E=-5.627040D-01  Symmetry=e
              MO Center=  1.2D-01,  1.2D-01, -4.5D-01, r^2= 1.5D+00
   Bfn.  Coefficient  Atom+Function         Bfn.  Coefficient  Atom+Function  
  ----- ------------  ---------------      ----- ------------  ---------------
    15      0.289912  2 C  py                14      0.287941  2 C  px         
    20     -0.245634  3 H  s                 21     -0.181859  3 H  s          
     4     -0.168513  1 O  py                 3     -0.167368  1 O  px         

 Vector    4  Occ=2.000000D+00  E=-5.627040D-01  Symmetry=e
              MO Center= -1.2D-01, -1.2D-01, -4.5D-01, r^2= 1.5D+00
   Bfn.  Coefficient  Atom+Function         Bfn.  Coefficient  Atom+Function  
  ----- ------------  ---------------      ----- ------------  ---------------
    14      0.289912  2 C  px                15     -0.287941  2 C  py         
    22      0.213144  4 H  s                 24     -0.212306  5 H  s          
     3     -0.168513  1 O  px                 4      0.167368  1 O  py         
    23      0.157804  4 H  s                 25     -0.157184  5 H  s          

 Vector    5  Occ=2.000000D+00  E=-4.950293D-01  Symmetry=a1
              MO Center=  5.0D-18, -6.1D-18,  5.7D-01, r^2= 1.3D+00
   Bfn.  Coefficient  Atom+Function         Bfn.  Coefficient  Atom+Function  
  ----- ------------  ---------------      ----- ------------  ---------------
     5      0.456595  1 O  pz                16      0.368592  2 C  pz         
     8      0.350210  1 O  pz                 2      0.222976  1 O  s          

 Vector    6  Occ=2.000000D+00  E=-3.414033D-01  Symmetry=e
              MO Center= -2.2D-02,  7.6D-02,  4.7D-01, r^2= 1.5D+00
   Bfn.  Coefficient  Atom+Function         Bfn.  Coefficient  Atom+Function  
  ----- ------------  ---------------      ----- ------------  ---------------
     3      0.514814  1 O  px                 6      0.454489  1 O  px         
    23      0.248960  4 H  s                 21     -0.246192  3 H  s          
    14      0.161541  2 C  px                 9      0.157228  1 O  px         
    22      0.154704  4 H  s                 20     -0.152984  3 H  s          

 Vector    7  Occ=2.000000D+00  E=-3.414033D-01  Symmetry=e
              MO Center=  2.2D-02, -7.6D-02,  4.7D-01, r^2= 1.5D+00
   Bfn.  Coefficient  Atom+Function         Bfn.  Coefficient  Atom+Function  
  ----- ------------  ---------------      ----- ------------  ---------------
     4      0.514814  1 O  py                 7      0.454489  1 O  py         
    25      0.285876  5 H  s                 24      0.177644  5 H  s          
    15      0.161541  2 C  py                10      0.157228  1 O  py         

 Vector    8  Occ=0.000000D+00  E= 1.952021D-01  Symmetry=a1
              MO Center=  4.1D-17,  3.5D-17,  2.1D+00, r^2= 4.1D+00
   Bfn.  Coefficient  Atom+Function         Bfn.  Coefficient  Atom+Function  
  ----- ------------  ---------------      ----- ------------  ---------------
    11      1.418039  1 O  pz                13      0.695228  2 C  s          
     2     -0.538669  1 O  s                 19      0.299475  2 C  pz         

 Vector    9  Occ=0.000000D+00  E= 2.149804D-01  Symmetry=e
              MO Center= -2.0D-02,  7.6D-02,  9.8D-01, r^2= 6.0D+00
   Bfn.  Coefficient  Atom+Function         Bfn.  Coefficient  Atom+Function  
  ----- ------------  ---------------      ----- ------------  ---------------
     9      1.199339  1 O  px                17     -0.571462  2 C  px         
    10      0.325023  1 O  py                 6     -0.317341  1 O  px         
    21      0.308361  3 H  s                 23     -0.307349  4 H  s          
    18     -0.154867  2 C  py                 3     -0.151349  1 O  px         

 Vector   10  Occ=0.000000D+00  E= 2.149804D-01  Symmetry=e
              MO Center=  2.0D-02, -7.6D-02,  9.8D-01, r^2= 6.0D+00
   Bfn.  Coefficient  Atom+Function         Bfn.  Coefficient  Atom+Function  
  ----- ------------  ---------------      ----- ------------  ---------------
    10      1.199339  1 O  py                18     -0.571462  2 C  py         
    25     -0.355480  5 H  s                  9     -0.325023  1 O  px         
     7     -0.317341  1 O  py                23      0.178616  4 H  s          
    21      0.176864  3 H  s                 17      0.154867  2 C  px         
     4     -0.151349  1 O  py         

 Vector   11  Occ=0.000000D+00  E= 2.908025D-01  Symmetry=a1
              MO Center= -1.4D-16, -8.9D-16, -8.7D-01, r^2= 3.8D+00
   Bfn.  Coefficient  Atom+Function         Bfn.  Coefficient  Atom+Function  
  ----- ------------  ---------------      ----- ------------  ---------------
    13      2.882451  2 C  s                 21     -1.682232  3 H  s          
    23     -1.682232  4 H  s                 25     -1.682232  5 H  s          
    19     -1.440125  2 C  pz                 2      0.365404  1 O  s          
    11     -0.272634  1 O  pz                12     -0.251819  2 C  s          
    16      0.197689  2 C  pz         

 Vector   12  Occ=0.000000D+00  E= 3.684787D-01  Symmetry=e
              MO Center= -1.7D-01,  2.5D-01, -8.5D-01, r^2= 3.3D+00
   Bfn.  Coefficient  Atom+Function         Bfn.  Coefficient  Atom+Function  
  ----- ------------  ---------------      ----- ------------  ---------------
    23      1.938717  4 H  s                 17      1.588683  2 C  px         
    21     -1.585578  3 H  s                  6     -0.405206  1 O  px         
    25     -0.353139  5 H  s                 14     -0.332087  2 C  px         
     9      0.246753  1 O  px                 3     -0.167834  1 O  px         

 Vector   13  Occ=0.000000D+00  E= 3.684787D-01  Symmetry=e
              MO Center=  1.7D-01, -2.5D-01, -8.5D-01, r^2= 3.3D+00
   Bfn.  Coefficient  Atom+Function         Bfn.  Coefficient  Atom+Function  
  ----- ------------  ---------------      ----- ------------  ---------------
    25      2.034753  5 H  s                 18      1.588683  2 C  py         
    21     -1.323204  3 H  s                 23     -0.711549  4 H  s          
     7     -0.405206  1 O  py                15     -0.332087  2 C  py         
    10      0.246753  1 O  py                 4     -0.167834  1 O  py         

 Vector   14  Occ=0.000000D+00  E= 3.953676D-01  Symmetry=a1
              MO Center=  5.2D-16,  5.4D-16, -3.9D-01, r^2= 3.3D+00
   Bfn.  Coefficient  Atom+Function         Bfn.  Coefficient  Atom+Function  
  ----- ------------  ---------------      ----- ------------  ---------------
    13      1.528402  2 C  s                 19      1.213254  2 C  pz         
     2     -1.164279  1 O  s                  8      0.794143  1 O  pz         
    11     -0.520821  1 O  pz                21     -0.442129  3 H  s          
    23     -0.442129  4 H  s                 25     -0.442129  5 H  s          
     5      0.263186  1 O  pz                12     -0.177062  2 C  s          

 Vector   15  Occ=0.000000D+00  E= 8.056547D-01  Symmetry=e
              MO Center=  1.7D-01, -9.8D-02, -4.2D-01, r^2= 2.7D+00
   Bfn.  Coefficient  Atom+Function         Bfn.  Coefficient  Atom+Function  
  ----- ------------  ---------------      ----- ------------  ---------------
    17      1.886487  2 C  px                14      0.789488  2 C  px         
     9     -0.474419  1 O  px                22      0.455078  4 H  s          
    23      0.391144  4 H  s                 20     -0.277838  3 H  s          
    18     -0.255962  2 C  py                 6     -0.244906  1 O  px         
    21     -0.238804  3 H  s                 24     -0.177240  5 H  s          

 Vector   16  Occ=0.000000D+00  E= 8.056547D-01  Symmetry=e
              MO Center= -1.7D-01,  9.8D-02, -4.2D-01, r^2= 2.7D+00
   Bfn.  Coefficient  Atom+Function         Bfn.  Coefficient  Atom+Function  
  ----- ------------  ---------------      ----- ------------  ---------------
    18      1.886487  2 C  py                15      0.789488  2 C  py         
    10     -0.474419  1 O  py                24      0.423150  5 H  s          
    20     -0.365069  3 H  s                 25      0.363701  5 H  s          
    21     -0.313780  3 H  s                 17      0.255962  2 C  px         
     7     -0.244906  1 O  py         

 Vector   17  Occ=0.000000D+00  E= 8.775851D-01  Symmetry=a1
              MO Center= -4.1D-17, -5.2D-18, -1.8D-01, r^2= 1.3D+00
   Bfn.  Coefficient  Atom+Function         Bfn.  Coefficient  Atom+Function  
  ----- ------------  ---------------      ----- ------------  ---------------
    19      1.092210  2 C  pz                16      1.073657  2 C  pz         
    13     -0.700818  2 C  s                  5     -0.416010  1 O  pz         
    12      0.393970  2 C  s                 21      0.372168  3 H  s          
    23      0.372168  4 H  s                 25      0.372168  5 H  s          
     8     -0.321752  1 O  pz                 2     -0.231682  1 O  s          


 center of mass
 --------------
 x =   0.00000000 y =   0.00000000 z =   0.24239655

 moments of inertia (a.u.)
 ------------------
          67.340287802991           0.000000000000           0.000000000000
           0.000000000000          67.340287802991           0.000000000000
           0.000000000000           0.000000000000           9.888069965594

  Mulliken analysis of the total density
  --------------------------------------

    Atom       Charge   Shell Charges
 -----------   ------   -------------------------------------------------------
    1 O    6     7.10   0.83  1.04  2.70  2.22  0.31
    2 C    4     4.10   0.89  0.30  2.03  0.88
    3 H    1     0.93   0.57  0.36
    4 H    1     0.93   0.57  0.36
    5 H    1     0.93   0.57  0.36

       Multipole analysis of the density wrt the origin
       ------------------------------------------------

     L   x y z        total         open         nuclear
     -   - - -        -----         ----         -------
     0   0 0 0     -1.000000      0.000000     13.000000

     1   1 0 0      0.000000      0.000000      0.000000
     1   0 1 0      0.000000      0.000000      0.000000
     1   0 0 1     -2.151379      0.000000     -0.270244

     2   2 0 0    -11.858408      0.000000      4.905648
     2   1 1 0      0.000000      0.000000      0.000000
     2   1 0 1      0.000000      0.000000      0.000000
     2   0 2 0    -11.858408      0.000000      4.905648
     2   0 1 1      0.000000      0.000000      0.000000
     2   0 0 2    -15.531580      0.000000     30.515580


 Parallel integral file used       1 records with       0 large values

 Line search: 
     step= 1.00 grad=-1.8D-02 hess= 2.0D-02 energy=    -23.043628 mode=bracket 
 new step= 0.45                   predicted energy=    -23.049762

          --------
          Step   1
          --------


                         Geometry "geometry" -> "geometry"
                         ---------------------------------

 Output coordinates in angstroms (scale by  1.889725989 to convert to a.u.)

  No.       Tag          Charge          X              Y              Z
 ---- ---------------- ---------- -------------- -------------- --------------
    1 o                    8.0000     0.00000000     0.00000000     0.81664504
    2 c                    6.0000     0.00000000     0.00000000    -0.54857997
    3 h                    1.0000     0.69780027     0.69780027    -1.00733891
    4 h                    1.0000    -0.95321290     0.25541263    -1.00733891
    5 h                    1.0000     0.25541263    -0.95321290    -1.00733891

      Atomic Mass 
      ----------- 

      o                 15.994910
      c                 12.000000
      h                  1.007825


 Effective nuclear repulsion energy (a.u.)      34.4108868892

            Nuclear Dipole moment (a.u.) 
            ----------------------------
        X                 Y               Z
 ---------------- ---------------- ----------------
     0.0000000000     0.0000000000     0.4151044000

      Symmetry information
      --------------------

 Group name             C3v       
 Group number             17
 Group order               6
 No. of unique centers     3

      Symmetry unique atoms

     1    2    3


          ---------------
          -cosmo- solvent
          ---------------
 dielectric constant -eps-  =  78.40
 charge screening approach  =   2
 screen = (eps-1)/(eps    ) =   0.98724
 -lineq- algorithm          =   1
 -bem- low  level           =   3
 -bem- high level           =   5
 -bem- from -octahedral-
 solvent radius (ang.)      =   0.000
 atomic radii = 
 --------------
    1  6.000  1.720
    2  4.000  2.000
    3  1.000  1.300
    4  1.000  1.300
    5  1.000  1.300

 solvent accessible surface
 --------------------------

 ---------- ATOMIC COORDINATES (A.U.) ------------ VDWR(ANG.) --
     1    0.00000000    0.00000000    1.54323536     1.720
     2    0.00000000    0.00000000   -1.03666583     2.000
     3    1.31865131    1.31865131   -1.90359452     1.300
     4   -1.80131118    0.48265988   -1.90359452     1.300
     5    0.48265988   -1.80131118   -1.90359452     1.300
 number of segments per atom =        128
 number of   points per atom =       2560
 atom (   nspa,  nppa )
 ----------------------
    1 (     92,  1556 )    1556
    2 (     96,  1230 )    1230
    3 (     46,   787 )     787
    4 (     50,   768 )     768
    5 (     50,   768 )     768
 number of -cosmo- surface points =      334
 molecular surface =     66.018 angstrom**2
 molecular volume  =     37.407 angstrom**3
 G(cav/disp)       =      1.190 kcal/mol
 ...... end of -cosmo- initialization ......


                                 NWChem SCF Module
                                 -----------------



  ao basis        = "ao basis"
  functions       =    25
  atoms           =     5
  closed shells   =     7
  open shells     =     0
  charge          =  -1.00
  wavefunction    = RHF 
  input vectors   = ./h3co_dat.movecs
  output vectors  = ./h3co_dat.movecs
  use symmetry    = T
  symmetry adapt  = T


 Summary of "ao basis" -> "ao basis" (cartesian)
 ------------------------------------------------------------------------------
       Tag                 Description            Shells   Functions and Types
 ---------------- ------------------------------  ------  ---------------------
 h                           6-31g*                  2        2   2s
 c                     Stuttgart RLC ECP             4        8   2s2p
 o                     Stuttgart RLC ECP             5       11   2s3p


      Symmetry analysis of basis
      --------------------------

        a1         11
        a2          0
        e          14


 Forming initial guess at      14.7s


 Loading old vectors from job with title :




      Symmetry analysis of molecular orbitals - initial
      -------------------------------------------------

  Numbering of irreducible representations: 

     1 a1          2 a2          3 e       

  Orbital symmetries:

     1 a1          2 a1          3 e           4 e           5 a1      
     6 e           7 e           8 a1          9 e          10 e       
    11 a1         12 e          13 e          14 a1         15 e       
    16 e          17 a1      


 Starting SCF solution at      14.7s



 ----------------------------------------------
         Quadratically convergent ROHF

 Convergence threshold     :          1.000E-04
 Maximum no. of iterations :           30
 Final Fock-matrix accuracy:          1.000E-07
 ----------------------------------------------

     COSMO gas phase

 #quartets = 2.892D+03 #integrals = 1.727D+04 #direct =  0.0% #cached =100.0%


 Integral file          = ./h3co_dat.aoints.0
 Record size in doubles =  65536        No. of integs per rec  =  43688
 Max. records in memory =      2        Max. records in file   =   3238
 No. of bits per label  =      8        No. of bits per value  =     64


              iter       energy          gnorm     gmax       time
             ----- ------------------- --------- --------- --------
                 1      -22.8992667139  2.04D-01  8.60D-02     14.4
                 2      -22.9058738615  1.23D-02  5.76D-03     14.4
                 3      -22.9058941934  1.15D-04  4.06D-05     14.4
                 4      -22.9058941948  3.52D-06  2.40D-06     14.4
     COSMO solvation phase

              iter       energy          gnorm     gmax       time
             ----- ------------------- --------- --------- --------
                 1      -23.0408607705  1.65D-01  7.34D-02     15.3
                 2      -23.0456830140  3.11D-02  1.56D-02     16.0
                 3      -23.0459342405  5.97D-03  2.88D-03     16.7
                 4      -23.0459491055  1.11D-03  5.17D-04     17.2
                 5      -23.0459507533  2.07D-04  9.80D-05     17.5
                 6      -23.0459510208  3.85D-05  1.89D-05     17.7
 
                  COSMO solvation results
                  -----------------------
 
                 gas phase energy =       -22.9058941948
                 sol phase energy =       -23.0459510208
 (electrostatic) solvation energy =         0.1400568260 (   87.89 kcal/mol)


       Final RHF  results 
       ------------------ 

         Total SCF energy =    -23.045951020790
      One-electron energy =    -85.294960848377
      Two-electron energy =     38.246921863719
 Nuclear repulsion energy =     20.659630934555

        Time for solution =      3.3s



       Symmetry analysis of molecular orbitals - final
       -----------------------------------------------

  Numbering of irreducible representations: 

     1 a1          2 a2          3 e       

  Orbital symmetries:

     1 a1          2 a1          3 e           4 e           5 a1      
     6 e           7 e           8 a1          9 e          10 e       
    11 a1         12 e          13 e          14 a1         15 e       
    16 e          17 a1      

             Final eigenvalues
             -----------------

              1      
    1   -1.2319
    2   -0.8659
    3   -0.5654
    4   -0.5654
    5   -0.4948
    6   -0.3386
    7   -0.3386
    8    0.1951
    9    0.2143
   10    0.2143
   11    0.2885
   12    0.3644
   13    0.3644
   14    0.4011
   15    0.8118
   16    0.8118
   17    0.8905

                       ROHF Final Molecular Orbital Analysis
                       -------------------------------------

 Vector    1  Occ=2.000000D+00  E=-1.231859D+00  Symmetry=a1
              MO Center= -5.4D-19, -8.7D-19,  4.7D-01, r^2= 6.3D-01
   Bfn.  Coefficient  Atom+Function         Bfn.  Coefficient  Atom+Function  
  ----- ------------  ---------------      ----- ------------  ---------------
     2      0.444160  1 O  s                  1     -0.392989  1 O  s          
    12     -0.240184  2 C  s          

 Vector    2  Occ=2.000000D+00  E=-8.659191D-01  Symmetry=a1
              MO Center= -1.3D-17,  7.6D-17, -6.0D-01, r^2= 1.4D+00
   Bfn.  Coefficient  Atom+Function         Bfn.  Coefficient  Atom+Function  
  ----- ------------  ---------------      ----- ------------  ---------------
    12      0.419498  2 C  s                  2      0.277577  1 O  s          
    13     -0.195344  2 C  s                  1     -0.185095  1 O  s          
    16     -0.158117  2 C  pz                20     -0.151925  3 H  s          
    22     -0.151925  4 H  s                 24     -0.151925  5 H  s          

 Vector    3  Occ=2.000000D+00  E=-5.653561D-01  Symmetry=e
              MO Center= -1.0D-01, -1.4D-01, -4.4D-01, r^2= 1.5D+00
   Bfn.  Coefficient  Atom+Function         Bfn.  Coefficient  Atom+Function  
  ----- ------------  ---------------      ----- ------------  ---------------
    15      0.307648  2 C  py                14     -0.264017  2 C  px         
    24      0.218515  5 H  s                 22     -0.200070  4 H  s          
     4     -0.183494  1 O  py                25      0.160582  5 H  s          
     3      0.157471  1 O  px                18     -0.157244  2 C  py         

 Vector    4  Occ=2.000000D+00  E=-5.653561D-01  Symmetry=e
              MO Center=  1.0D-01,  1.4D-01, -4.4D-01, r^2= 1.5D+00
   Bfn.  Coefficient  Atom+Function         Bfn.  Coefficient  Atom+Function  
  ----- ------------  ---------------      ----- ------------  ---------------
    14      0.307648  2 C  px                15      0.264017  2 C  py         
    20     -0.241670  3 H  s                  3     -0.183494  1 O  px         
    21     -0.177598  3 H  s                  4     -0.157471  1 O  py         
    17     -0.157244  2 C  px         

 Vector    5  Occ=2.000000D+00  E=-4.947742D-01  Symmetry=a1
              MO Center=  9.1D-18,  0.0D+00,  5.3D-01, r^2= 1.3D+00
   Bfn.  Coefficient  Atom+Function         Bfn.  Coefficient  Atom+Function  
  ----- ------------  ---------------      ----- ------------  ---------------
     5      0.457892  1 O  pz                16      0.370835  2 C  pz         
     8      0.350809  1 O  pz                 2      0.218785  1 O  s          

 Vector    6  Occ=2.000000D+00  E=-3.386472D-01  Symmetry=e
              MO Center= -4.1D-02,  7.4D-02,  4.4D-01, r^2= 1.6D+00
   Bfn.  Coefficient  Atom+Function         Bfn.  Coefficient  Atom+Function  
  ----- ------------  ---------------      ----- ------------  ---------------
     3      0.524506  1 O  px                 6      0.465754  1 O  px         
    23      0.267574  4 H  s                 21     -0.231782  3 H  s          
    14      0.165171  2 C  px                22      0.165297  4 H  s          
     9      0.161722  1 O  px         

 Vector    7  Occ=2.000000D+00  E=-3.386472D-01  Symmetry=e
              MO Center=  4.1D-02, -7.4D-02,  4.4D-01, r^2= 1.6D+00
   Bfn.  Coefficient  Atom+Function         Bfn.  Coefficient  Atom+Function  
  ----- ------------  ---------------      ----- ------------  ---------------
     4      0.524506  1 O  py                 7      0.465754  1 O  py         
    25      0.288303  5 H  s                 24      0.178103  5 H  s          
    21     -0.175148  3 H  s                 15      0.165171  2 C  py         
    10      0.161722  1 O  py         

 Vector    8  Occ=0.000000D+00  E= 1.951182D-01  Symmetry=a1
              MO Center= -2.7D-17, -3.8D-17,  2.1D+00, r^2= 4.1D+00
   Bfn.  Coefficient  Atom+Function         Bfn.  Coefficient  Atom+Function  
  ----- ------------  ---------------      ----- ------------  ---------------
    11      1.425384  1 O  pz                13      0.659714  2 C  s          
     2     -0.530534  1 O  s                 19      0.284699  2 C  pz         
    21      0.158280  3 H  s                 23      0.158280  4 H  s          
    25      0.158280  5 H  s                  8     -0.155218  1 O  pz         

 Vector    9  Occ=0.000000D+00  E= 2.142548D-01  Symmetry=e
              MO Center=  8.2D-02, -2.1D-02,  9.4D-01, r^2= 6.0D+00
   Bfn.  Coefficient  Atom+Function         Bfn.  Coefficient  Atom+Function  
  ----- ------------  ---------------      ----- ------------  ---------------
    10      1.196178  1 O  py                18     -0.580601  2 C  py         
     9      0.326404  1 O  px                 7     -0.310383  1 O  py         
    21      0.307434  3 H  s                 25     -0.305810  5 H  s          
    17     -0.158430  2 C  px         

 Vector   10  Occ=0.000000D+00  E= 2.142548D-01  Symmetry=e
              MO Center= -8.2D-02,  2.1D-02,  9.4D-01, r^2= 6.0D+00
   Bfn.  Coefficient  Atom+Function         Bfn.  Coefficient  Atom+Function  
  ----- ------------  ---------------      ----- ------------  ---------------
     9      1.196178  1 O  px                17     -0.580601  2 C  px         
    23     -0.354056  4 H  s                 10     -0.326404  1 O  py         
     6     -0.310383  1 O  px                25      0.178435  5 H  s          
    21      0.175621  3 H  s                 18      0.158430  2 C  py         

 Vector   11  Occ=0.000000D+00  E= 2.885088D-01  Symmetry=a1
              MO Center=  1.7D-16,  1.1D-16, -8.6D-01, r^2= 3.7D+00
   Bfn.  Coefficient  Atom+Function         Bfn.  Coefficient  Atom+Function  
  ----- ------------  ---------------      ----- ------------  ---------------
    13      2.673729  2 C  s                 21     -1.584364  3 H  s          
    23     -1.584364  4 H  s                 25     -1.584364  5 H  s          
    19     -1.316919  2 C  pz                 2      0.346812  1 O  s          
    12     -0.257076  2 C  s                 11     -0.245272  1 O  pz         
    16      0.200822  2 C  pz         

 Vector   12  Occ=0.000000D+00  E= 3.644047D-01  Symmetry=e
              MO Center=  8.5D-02,  2.9D-01, -8.2D-01, r^2= 3.3D+00
   Bfn.  Coefficient  Atom+Function         Bfn.  Coefficient  Atom+Function  
  ----- ------------  ---------------      ----- ------------  ---------------
    21      1.963553  3 H  s                 23     -1.415099  4 H  s          
    17     -1.370502  2 C  px                18     -0.813874  2 C  py         
    25     -0.548454  5 H  s                  6      0.358523  1 O  px         
    14      0.285035  2 C  px                 9     -0.237296  1 O  px         
     7      0.212909  1 O  py                15      0.169269  2 C  py         

 Vector   13  Occ=0.000000D+00  E= 3.644047D-01  Symmetry=e
              MO Center= -8.5D-02, -2.9D-01, -8.2D-01, r^2= 3.3D+00
   Bfn.  Coefficient  Atom+Function         Bfn.  Coefficient  Atom+Function  
  ----- ------------  ---------------      ----- ------------  ---------------
    25      1.950665  5 H  s                 23     -1.450308  4 H  s          
    18      1.370502  2 C  py                17     -0.813874  2 C  px         
    21     -0.500357  3 H  s                  7     -0.358523  1 O  py         
    15     -0.285035  2 C  py                10      0.237296  1 O  py         
     6      0.212909  1 O  px                14      0.169269  2 C  px         

 Vector   14  Occ=0.000000D+00  E= 4.011033D-01  Symmetry=a1
              MO Center= -2.9D-16, -5.1D-16, -4.5D-01, r^2= 3.4D+00
   Bfn.  Coefficient  Atom+Function         Bfn.  Coefficient  Atom+Function  
  ----- ------------  ---------------      ----- ------------  ---------------
    13      1.645299  2 C  s                 19      1.222058  2 C  pz         
     2     -1.196651  1 O  s                  8      0.786330  1 O  pz         
    11     -0.530179  1 O  pz                21     -0.508363  3 H  s          
    23     -0.508363  4 H  s                 25     -0.508363  5 H  s          
     5      0.255471  1 O  pz                12     -0.187067  2 C  s          

 Vector   15  Occ=0.000000D+00  E= 8.118369D-01  Symmetry=e
              MO Center= -1.5D-01,  1.5D-01, -4.4D-01, r^2= 2.6D+00
   Bfn.  Coefficient  Atom+Function         Bfn.  Coefficient  Atom+Function  
  ----- ------------  ---------------      ----- ------------  ---------------
    18      1.937705  2 C  py                15      0.821785  2 C  py         
    10     -0.476486  1 O  py                24      0.428361  5 H  s          
    25      0.405292  5 H  s                 20     -0.313937  3 H  s          
    21     -0.297031  3 H  s                  7     -0.257410  1 O  py         

 Vector   16  Occ=0.000000D+00  E= 8.118369D-01  Symmetry=e
              MO Center=  1.5D-01, -1.5D-01, -4.4D-01, r^2= 2.6D+00
   Bfn.  Coefficient  Atom+Function         Bfn.  Coefficient  Atom+Function  
  ----- ------------  ---------------      ----- ------------  ---------------
    17      1.937705  2 C  px                14      0.821785  2 C  px         
     9     -0.476486  1 O  px                22      0.428566  4 H  s          
    23      0.405486  4 H  s                 20     -0.313376  3 H  s          
    21     -0.296500  3 H  s                  6     -0.257410  1 O  px         

 Vector   17  Occ=0.000000D+00  E= 8.904750D-01  Symmetry=a1
              MO Center= -2.2D-17, -1.0D-17, -2.0D-01, r^2= 1.3D+00
   Bfn.  Coefficient  Atom+Function         Bfn.  Coefficient  Atom+Function  
  ----- ------------  ---------------      ----- ------------  ---------------
    16      1.093305  2 C  pz                19      1.007360  2 C  pz         
    13     -0.738614  2 C  s                  5     -0.413350  1 O  pz         
     8     -0.371483  1 O  pz                12      0.367142  2 C  s          
    21      0.363307  3 H  s                 23      0.363307  4 H  s          
    25      0.363307  5 H  s                  1     -0.164561  1 O  s          


 center of mass
 --------------
 x =   0.00000000 y =   0.00000000 z =   0.20918079

 moments of inertia (a.u.)
 ------------------
          65.845362288387           0.000000000000           0.000000000000
           0.000000000000          65.845362288387           0.000000000000
           0.000000000000           0.000000000000          10.514686210476

  Mulliken analysis of the total density
  --------------------------------------

    Atom       Charge   Shell Charges
 -----------   ------   -------------------------------------------------------
    1 O    6     7.09   0.83  1.04  2.71  2.21  0.30
    2 C    4     4.09   0.89  0.31  2.01  0.88
    3 H    1     0.94   0.57  0.37
    4 H    1     0.94   0.57  0.37
    5 H    1     0.94   0.57  0.37

       Multipole analysis of the density wrt the origin
       ------------------------------------------------

     L   x y z        total         open         nuclear
     -   - - -        -----         ----         -------
     0   0 0 0     -1.000000      0.000000     13.000000

     1   1 0 0      0.000000      0.000000      0.000000
     1   0 1 0      0.000000      0.000000      0.000000
     1   0 0 1     -2.079479      0.000000     -0.598035

     2   2 0 0    -11.842091      0.000000      5.216524
     2   1 1 0      0.000000      0.000000      0.000000
     2   1 0 1      0.000000      0.000000      0.000000
     2   0 2 0    -11.842091      0.000000      5.216524
     2   0 1 1      0.000000      0.000000      0.000000
     2   0 0 2    -15.530624      0.000000     29.459173


 Parallel integral file used       1 records with       0 large values

                              NWChem Gradients Module
                              -----------------------



  wavefunction    =   RHF     

  Using symmetry


                         RHF ENERGY GRADIENTS

    atom               coordinates                        gradient
                 x          y          z           x          y          z
   1 o       0.000000   0.000000   1.543235    0.000000   0.000000  -0.036201
   2 c       0.000000   0.000000  -1.036666    0.000000   0.000000   0.042981
   3 h       1.318651   1.318651  -1.903595   -0.005695  -0.005695  -0.002260
   4 h      -1.801311   0.482660  -1.903595    0.007780  -0.002085  -0.002260
   5 h       0.482660  -1.801311  -1.903595   -0.002085   0.007780  -0.002260

                 ----------------------------------------
                 |  Time  |  1-e(secs)   |  2-e(secs)   |
                 ----------------------------------------
                 |  CPU   |       0.10   |       0.16   |
                 ----------------------------------------
                 |  WALL  |       0.10   |       0.16   |
                 ----------------------------------------

  Step       Energy      Delta E   Gmax     Grms     Xrms     Xmax   Walltime
  ---- ---------------- -------- -------- -------- -------- -------- --------
@    1     -23.04595102 -2.8D-04  0.03620  0.01215  0.02528  0.04467     18.3
                                                                    



                                Z-matrix (autoz)
                                -------- 

 Units are Angstrom for bonds and degrees for angles

      Type          Name      I     J     K     L     M      Value     Gradient
      ----------- --------  ----- ----- ----- ----- ----- ---------- ----------
    1 Stretch                  1     2                       1.36522   -0.03620
    2 Stretch                  2     3                       1.08826   -0.00635
    3 Stretch                  2     4                       1.08826   -0.00635
    4 Stretch                  2     5                       1.08826   -0.00635
    5 Bend                     1     2     3               114.93265    0.00248
    6 Bend                     1     2     4               114.93265    0.00248
    7 Bend                     1     2     5               114.93265    0.00248
    8 Bend                     3     2     4               103.49969   -0.00292
    9 Bend                     3     2     5               103.49969   -0.00292
   10 Bend                     4     2     5               103.49969   -0.00292


          ---------------
          -cosmo- solvent
          ---------------
 dielectric constant -eps-  =  78.40
 charge screening approach  =   2
 screen = (eps-1)/(eps    ) =   0.98724
 -lineq- algorithm          =   1
 -bem- low  level           =   3
 -bem- high level           =   5
 -bem- from -octahedral-
 solvent radius (ang.)      =   0.000
 atomic radii = 
 --------------
    1  6.000  1.720
    2  4.000  2.000
    3  1.000  1.300
    4  1.000  1.300
    5  1.000  1.300

 solvent accessible surface
 --------------------------

 ---------- ATOMIC COORDINATES (A.U.) ------------ VDWR(ANG.) --
     1    0.00000000    0.00000000    1.60553712     1.720
     2    0.00000000    0.00000000   -1.08127365     2.000
     3    1.31479242    1.31479242   -1.90949250     1.300
     4   -1.79603985    0.48124743   -1.90949250     1.300
     5    0.48124743   -1.79603985   -1.90949250     1.300
 number of segments per atom =        128
 number of   points per atom =       2560
 atom (   nspa,  nppa )
 ----------------------
    1 (     92,  1580 )    1580
    2 (     96,  1256 )    1256
    3 (     46,   773 )     773
    4 (     48,   748 )     748
    5 (     48,   748 )     748
 number of -cosmo- surface points =      330
 molecular surface =     66.429 angstrom**2
 molecular volume  =     37.753 angstrom**3
 G(cav/disp)       =      1.192 kcal/mol
 ...... end of -cosmo- initialization ......


                                 NWChem SCF Module
                                 -----------------



  ao basis        = "ao basis"
  functions       =    25
  atoms           =     5
  closed shells   =     7
  open shells     =     0
  charge          =  -1.00
  wavefunction    = RHF 
  input vectors   = ./h3co_dat.movecs
  output vectors  = ./h3co_dat.movecs
  use symmetry    = T
  symmetry adapt  = T


 Summary of "ao basis" -> "ao basis" (cartesian)
 ------------------------------------------------------------------------------
       Tag                 Description            Shells   Functions and Types
 ---------------- ------------------------------  ------  ---------------------
 h                           6-31g*                  2        2   2s
 c                     Stuttgart RLC ECP             4        8   2s2p
 o                     Stuttgart RLC ECP             5       11   2s3p


      Symmetry analysis of basis
      --------------------------

        a1         11
        a2          0
        e          14


 Forming initial guess at      18.4s


 Loading old vectors from job with title :




      Symmetry analysis of molecular orbitals - initial
      -------------------------------------------------

  Numbering of irreducible representations: 

     1 a1          2 a2          3 e       

  Orbital symmetries:

     1 a1          2 a1          3 e           4 e           5 a1      
     6 e           7 e           8 a1          9 e          10 e       
    11 a1         12 e          13 e          14 a1         15 e       
    16 e          17 a1      


 Starting SCF solution at      18.4s



 ----------------------------------------------
         Quadratically convergent ROHF

 Convergence threshold     :          1.000E-04
 Maximum no. of iterations :           30
 Final Fock-matrix accuracy:          1.000E-07
 ----------------------------------------------

     COSMO gas phase

 #quartets = 2.892D+03 #integrals = 1.727D+04 #direct =  0.0% #cached =100.0%


 Integral file          = ./h3co_dat.aoints.0
 Record size in doubles =  65536        No. of integs per rec  =  43688
 Max. records in memory =      2        Max. records in file   =   3237
 No. of bits per label  =      8        No. of bits per value  =     64


              iter       energy          gnorm     gmax       time
             ----- ------------------- --------- --------- --------
                 1      -22.8980960018  2.26D-01  1.32D-01     18.1
                 2      -22.9043290128  1.38D-01  6.56D-02     18.1
                 3      -22.9056336926  8.57D-03  3.13D-03     18.1
                 4      -22.9056490307  7.06D-05  2.80D-05     18.1
     COSMO solvation phase

[...]
    21     -0.162343  3 H  s                 22      0.160680  4 H  s          
    14      0.156639  2 C  px         

 Vector    8  Occ=0.000000D+00  E= 1.933989D-01  Symmetry=a1
              MO Center= -3.5D-18, -3.1D-17,  2.1D+00, r^2= 4.1D+00
   Bfn.  Coefficient  Atom+Function         Bfn.  Coefficient  Atom+Function  
  ----- ------------  ---------------      ----- ------------  ---------------
    11      1.418920  1 O  pz                13      0.649153  2 C  s          
     2     -0.531491  1 O  s                 19      0.330867  2 C  pz         
    21      0.165988  3 H  s                 23      0.165988  4 H  s          
    25      0.165988  5 H  s          

 Vector    9  Occ=0.000000D+00  E= 2.168981D-01  Symmetry=e
              MO Center= -5.4D-02,  6.7D-02,  9.6D-01, r^2= 5.9D+00
   Bfn.  Coefficient  Atom+Function         Bfn.  Coefficient  Atom+Function  
  ----- ------------  ---------------      ----- ------------  ---------------
     9      1.230188  1 O  px                17     -0.589627  2 C  px         
     6     -0.341657  1 O  px                23     -0.332136  4 H  s          
    21      0.260204  3 H  s                  3     -0.161917  1 O  px         

 Vector   10  Occ=0.000000D+00  E= 2.168981D-01  Symmetry=e
              MO Center=  5.4D-02, -6.7D-02,  9.6D-01, r^2= 5.9D+00
   Bfn.  Coefficient  Atom+Function         Bfn.  Coefficient  Atom+Function  
  ----- ------------  ---------------      ----- ------------  ---------------
    10      1.230188  1 O  py                18     -0.589627  2 C  py         
     7     -0.341657  1 O  py                25     -0.341988  5 H  s          
    21      0.233288  3 H  s                  4     -0.161917  1 O  py         

 Vector   11  Occ=0.000000D+00  E= 2.868037D-01  Symmetry=a1
              MO Center= -1.9D-16,  3.3D-16, -8.6D-01, r^2= 3.6D+00
   Bfn.  Coefficient  Atom+Function         Bfn.  Coefficient  Atom+Function  
  ----- ------------  ---------------      ----- ------------  ---------------
    13      2.551876  2 C  s                 21     -1.505938  3 H  s          
    23     -1.505938  4 H  s                 25     -1.505938  5 H  s          
    19     -1.203979  2 C  pz                 2      0.312557  1 O  s          
    12     -0.258287  2 C  s                 16      0.202023  2 C  pz         
    11     -0.193286  1 O  pz         

 Vector   12  Occ=0.000000D+00  E= 3.575151D-01  Symmetry=e
              MO Center= -1.6D-01,  2.7D-01, -8.3D-01, r^2= 3.4D+00
   Bfn.  Coefficient  Atom+Function         Bfn.  Coefficient  Atom+Function  
  ----- ------------  ---------------      ----- ------------  ---------------
    23      1.883625  4 H  s                 17      1.590631  2 C  px         
    21     -1.589164  3 H  s                  6     -0.381752  1 O  px         
    14     -0.322012  2 C  px                25     -0.294461  5 H  s          
     9      0.284431  1 O  px                18      0.185313  2 C  py         
     3     -0.156526  1 O  px         

 Vector   13  Occ=0.000000D+00  E= 3.575151D-01  Symmetry=e
              MO Center=  1.6D-01, -2.7D-01, -8.3D-01, r^2= 3.4D+00
   Bfn.  Coefficient  Atom+Function         Bfn.  Coefficient  Atom+Function  
  ----- ------------  ---------------      ----- ------------  ---------------
    25      2.005016  5 H  s                 18      1.590631  2 C  py         
    21     -1.257519  3 H  s                 23     -0.747497  4 H  s          
     7     -0.381752  1 O  py                15     -0.322012  2 C  py         
    10      0.284431  1 O  py                17     -0.185313  2 C  px         
     4     -0.156526  1 O  py         

 Vector   14  Occ=0.000000D+00  E= 3.942350D-01  Symmetry=a1
              MO Center= -6.4D-16, -3.2D-16, -4.1D-01, r^2= 3.5D+00
   Bfn.  Coefficient  Atom+Function         Bfn.  Coefficient  Atom+Function  
  ----- ------------  ---------------      ----- ------------  ---------------
    13      1.618157  2 C  s                 19      1.099696  2 C  pz         
     2     -1.049004  1 O  s                  8      0.808268  1 O  pz         
    21     -0.588462  3 H  s                 23     -0.588462  4 H  s          
    25     -0.588462  5 H  s                 11     -0.571427  1 O  pz         
     5      0.290827  1 O  pz                12     -0.229240  2 C  s          

 Vector   15  Occ=0.000000D+00  E= 8.052971D-01  Symmetry=e
              MO Center=  9.6D-03, -2.3D-01, -4.9D-01, r^2= 2.6D+00
   Bfn.  Coefficient  Atom+Function         Bfn.  Coefficient  Atom+Function  
  ----- ------------  ---------------      ----- ------------  ---------------
    17      1.785924  2 C  px                14      0.767836  2 C  px         
    18      0.696177  2 C  py                 9     -0.417871  1 O  px         
    20     -0.403468  3 H  s                 21     -0.386396  3 H  s          
    22      0.355141  4 H  s                 23      0.340114  4 H  s          
    15      0.299313  2 C  py                 6     -0.224020  1 O  px         

 Vector   16  Occ=0.000000D+00  E= 8.052971D-01  Symmetry=e
              MO Center= -9.6D-03,  2.3D-01, -4.9D-01, r^2= 2.6D+00
   Bfn.  Coefficient  Atom+Function         Bfn.  Coefficient  Atom+Function  
  ----- ------------  ---------------      ----- ------------  ---------------
    18      1.785924  2 C  py                15      0.767836  2 C  py         
    17     -0.696177  2 C  px                24      0.437983  5 H  s          
    10     -0.417871  1 O  py                25      0.419450  5 H  s          
    14     -0.299313  2 C  px                22     -0.260844  4 H  s          
    23     -0.249806  4 H  s                  7     -0.224020  1 O  py         

 Vector   17  Occ=0.000000D+00  E= 8.391985D-01  Symmetry=a1
              MO Center=  3.7D-17,  3.2D-17, -3.2D-01, r^2= 1.4D+00
   Bfn.  Coefficient  Atom+Function         Bfn.  Coefficient  Atom+Function  
  ----- ------------  ---------------      ----- ------------  ---------------
    16      1.070784  2 C  pz                19      1.034048  2 C  pz         
    13     -0.471845  2 C  s                  5     -0.388886  1 O  pz         
    12      0.321645  2 C  s                  2     -0.283502  1 O  s          
    21      0.272218  3 H  s                 23      0.272218  4 H  s          
    25      0.272218  5 H  s                  8     -0.242014  1 O  pz         


 center of mass
 --------------
 x =   0.00000000 y =   0.00000000 z =   0.20106070

 moments of inertia (a.u.)
 ------------------
          69.875575075635           0.000000000000           0.000000000000
           0.000000000000          69.875575075635           0.000000000000
           0.000000000000           0.000000000000          11.003139691170

  Mulliken analysis of the total density
  --------------------------------------

    Atom       Charge   Shell Charges
 -----------   ------   -------------------------------------------------------
    1 O    6     7.13   0.83  1.06  2.68  2.24  0.33
    2 C    4     4.10   0.89  0.33  1.99  0.89
    3 H    1     0.92   0.56  0.36
    4 H    1     0.92   0.56  0.36
    5 H    1     0.92   0.56  0.36

       Multipole analysis of the density wrt the origin
       ------------------------------------------------

     L   x y z        total         open         nuclear
     -   - - -        -----         ----         -------
     0   0 0 0     -1.000000      0.000000     13.000000

     1   1 0 0      0.000000      0.000000      0.000000
     1   0 1 0      0.000000      0.000000      0.000000
     1   0 0 1     -2.210665      0.000000     -0.632230

     2   2 0 0    -11.826518      0.000000      5.458854
     2   1 1 0      0.000000      0.000000      0.000000
     2   1 0 1      0.000000      0.000000      0.000000
     2   0 2 0    -11.826518      0.000000      5.458854
     2   0 1 1      0.000000      0.000000      0.000000
     2   0 0 2    -15.653159      0.000000     30.673503


 Parallel integral file used       1 records with       0 large values

                              NWChem Gradients Module
                              -----------------------



  wavefunction    =   RHF     

  Using symmetry


                         RHF ENERGY GRADIENTS

    atom               coordinates                        gradient
                 x          y          z           x          y          z
   1 o       0.000000   0.000000   1.581211    0.000000   0.000000  -0.000068
   2 c       0.000000   0.000000  -1.111357    0.000000   0.000000  -0.000390
   3 h       1.348932   1.348932  -1.891356    0.000008   0.000008   0.000152
   4 h      -1.842676   0.493743  -1.891356   -0.000010   0.000003   0.000152
   5 h       0.493743  -1.842676  -1.891356    0.000003  -0.000010   0.000152

                 ----------------------------------------
                 |  Time  |  1-e(secs)   |  2-e(secs)   |
                 ----------------------------------------
                 |  CPU   |       0.10   |       0.16   |
                 ----------------------------------------
                 |  WALL  |       0.10   |       0.16   |
                 ----------------------------------------

  Step       Energy      Delta E   Gmax     Grms     Xrms     Xmax   Walltime
  ---- ---------------- -------- -------- -------- -------- -------- --------
@    6     -23.04879805 -8.6D-08  0.00008  0.00007  0.00026  0.00060     54.7
                                     ok       ok       ok       ok  



                                Z-matrix (autoz)
                                -------- 

 Units are Angstrom for bonds and degrees for angles

      Type          Name      I     J     K     L     M      Value     Gradient
      ----------- --------  ----- ----- ----- ----- ----- ---------- ----------
    1 Stretch                  1     2                       1.42485   -0.00007
    2 Stretch                  2     3                       1.09062   -0.00005
    3 Stretch                  2     4                       1.09062   -0.00005
    4 Stretch                  2     5                       1.09062   -0.00005
    5 Bend                     1     2     3               112.23836   -0.00007
    6 Bend                     1     2     4               112.23836   -0.00007
    7 Bend                     1     2     5               112.23836   -0.00007
    8 Bend                     3     2     4               106.56789    0.00008
    9 Bend                     3     2     5               106.56789    0.00008
   10 Bend                     4     2     5               106.56789    0.00008


      ----------------------
      Optimization converged
      ----------------------


  Step       Energy      Delta E   Gmax     Grms     Xrms     Xmax   Walltime
  ---- ---------------- -------- -------- -------- -------- -------- --------
@    6     -23.04879805 -8.6D-08  0.00008  0.00007  0.00026  0.00060     54.7
                                     ok       ok       ok       ok  



                                Z-matrix (autoz)
                                -------- 

 Units are Angstrom for bonds and degrees for angles

      Type          Name      I     J     K     L     M      Value     Gradient
      ----------- --------  ----- ----- ----- ----- ----- ---------- ----------
    1 Stretch                  1     2                       1.42485   -0.00007
    2 Stretch                  2     3                       1.09062   -0.00005
    3 Stretch                  2     4                       1.09062   -0.00005
    4 Stretch                  2     5                       1.09062   -0.00005
    5 Bend                     1     2     3               112.23836   -0.00007
    6 Bend                     1     2     4               112.23836   -0.00007
    7 Bend                     1     2     5               112.23836   -0.00007
    8 Bend                     3     2     4               106.56789    0.00008
    9 Bend                     3     2     5               106.56789    0.00008
   10 Bend                     4     2     5               106.56789    0.00008



                         Geometry "geometry" -> "geometry"
                         ---------------------------------

 Output coordinates in angstroms (scale by  1.889725989 to convert to a.u.)

  No.       Tag          Charge          X              Y              Z
 ---- ---------------- ---------- -------------- -------------- --------------
    1 o                    8.0000     0.00000000     0.00000000     0.83674079
    2 c                    6.0000     0.00000000     0.00000000    -0.58810460
    3 h                    1.0000     0.71382424     0.71382424    -1.00086261
    4 h                    1.0000    -0.97510204     0.26127780    -1.00086261
    5 h                    1.0000     0.26127780    -0.97510204    -1.00086261

      Atomic Mass 
      ----------- 

      o                 15.994910
      c                 12.000000
      h                  1.007825


 Effective nuclear repulsion energy (a.u.)      33.5259485867

            Nuclear Dipole moment (a.u.) 
            ----------------------------
        X                 Y               Z
 ---------------- ---------------- ----------------
     0.0000000000     0.0000000000     0.3074789744

      Symmetry information
      --------------------

 Group name             C3v       
 Group number             17
 Group order               6
 No. of unique centers     3

      Symmetry unique atoms

     1    2    3


                Final and change from initial internal coordinates
                --------------------------------------------------



                                Z-matrix (autoz)
                                -------- 

 Units are Angstrom for bonds and degrees for angles

      Type          Name      I     J     K     L     M      Value       Change
      ----------- --------  ----- ----- ----- ----- ----- ---------- ----------
    1 Stretch                  1     2                       1.42485    0.07143
    2 Stretch                  2     3                       1.09062   -0.01034
    3 Stretch                  2     4                       1.09062   -0.01034
    4 Stretch                  2     5                       1.09062   -0.01034
    5 Bend                     1     2     3               112.23836   -1.07961
    6 Bend                     1     2     4               112.23836   -1.07961
    7 Bend                     1     2     5               112.23836   -1.07961
    8 Bend                     3     2     4               106.56789    1.20251
    9 Bend                     3     2     5               106.56789    1.20251
   10 Bend                     4     2     5               106.56789    1.20251

 ==============================================================================
                                internuclear distances
 ------------------------------------------------------------------------------
       center one      |      center two      | atomic units |  angstroms
 ------------------------------------------------------------------------------
    2 c                |   1 o                |     2.69257  |     1.42485
    3 h                |   2 c                |     2.06098  |     1.09062
    4 h                |   2 c                |     2.06098  |     1.09062
    5 h                |   2 c                |     2.06098  |     1.09062
 ------------------------------------------------------------------------------
                         number of included internuclear distances:          4
 ==============================================================================



 ==============================================================================
                                 internuclear angles
 ------------------------------------------------------------------------------
        center 1       |       center 2       |       center 3       |  degrees
 ------------------------------------------------------------------------------
    1 o                |   2 c                |   3 h                |   112.24
    1 o                |   2 c                |   4 h                |   112.24
    1 o                |   2 c                |   5 h                |   112.24
    3 h                |   2 c                |   4 h                |   106.57
    3 h                |   2 c                |   5 h                |   106.57
    4 h                |   2 c                |   5 h                |   106.57
 ------------------------------------------------------------------------------
                            number of included internuclear angles:          6
 ==============================================================================




 Task  times  cpu:       53.6s     wall:       54.6s
 Summary of allocated global arrays
-----------------------------------
  No active global arrays



                         GA Statistics for process    0
                         ------------------------------

       create   destroy   get      put      acc     scatter   gather  read&inc
calls: 7518     7518     1.42e+05 2.82e+04 1.02e+05    0        0        0     
number of processes/call 1.00e+00 1.00e+00 1.00e+00 0.00e+00 0.00e+00
bytes total:             4.37e+07 2.61e+07 2.32e+07 0.00e+00 0.00e+00 0.00e+00
bytes remote:            0.00e+00 0.00e+00 0.00e+00 0.00e+00 0.00e+00 0.00e+00
Max memory consumed for GA by this process: 69192 bytes
MA_summarize_allocated_blocks: starting scan ...
MA_summarize_allocated_blocks: scan completed: 0 heap blocks, 0 stack blocks
MA usage statistics:

	allocation statistics:
					      heap	     stack
					      ----	     -----
	current number of blocks	         0	         0
	maximum number of blocks	        41	        32
	current total bytes		         0	         0
	maximum total bytes		   1078336	  22509528
	maximum total K-bytes		      1079	     22510
	maximum total M-bytes		         2	        23


                                NWChem Input Module
                                -------------------





                                     CITATION
                                     --------
                Please cite the following reference when publishing
                           results obtained with NWChem:

                 M. Valiev, E.J. Bylaska, N. Govind, K. Kowalski,
              T.P. Straatsma, H.J.J. van Dam, D. Wang, J. Nieplocha,
                        E. Apra, T.L. Windus, W.A. de Jong
                 "NWChem: a comprehensive and scalable open-source
                  solution for large scale molecular simulations"
                      Comput. Phys. Commun. 181, 1477 (2010)
                           doi:10.1016/j.cpc.2010.04.018

                              AUTHORS & CONTRIBUTORS
                              ----------------------
  E. Apra, E. J. Bylaska, W. A. de Jong, N. Govind, K. Kowalski, T. P. Straatsma,
          M. Valiev, H. J. J. van Dam, D. Wang, T. L. Windus, J. Hammond,
    J. Autschbach, F. Aquino, S. Hirata, M. T. Hackler, J. Mullin, P. Nichols,
    R. Peverati, Y. Zhao, P.-D. Fan, R. J. Harrison, M. Dupuis, D. M. A. Smith,
    J. Nieplocha, V. Tipparaju, M. Krishnan, A. Vazquez-Mayagoitia, L. Jensen,
      M. Swart, Q. Wu, T. Van Voorhis, A. A. Auer, M. Nooijen, L. D. Crosby,
        E. Brown, G. Cisneros, G. I. Fann, H. Fruchtl, J. Garza, K. Hirao,
        R. Kendall, J. A. Nichols, K. Tsemekhman, K. Wolinski, J. Anchell,
       D. Bernholdt, P. Borowski, T. Clark, D. Clerc, H. Dachsel, M. Deegan,
        K. Dyall, D. Elwood, E. Glendening, M. Gutowski, A. Hess, J. Jaffe,
        B. Johnson, J. Ju, R. Kobayashi, R. Kutteh, Z. Lin, R. Littlefield,
   X. Long, B. Meng, T. Nakajima, S. Niu, L. Pollack, M. Rosing, K. Glaesemann,
          G. Sandrone, M. Stave, H. Taylor, G. Thomas, J. H. van Lenthe,
                                A. Wong, Z. Zhang.

 Total times  cpu:       53.6s     wall:       54.7s
