 argument  1 = /Users/edo/nwchem/nwchem/QA/tests/cosmo_h3co_ecp/cosmo_h3co_ecp.nw
  NWChem w/ OpenMP: maximum threads =    1



============================== echo of input deck ==============================
echo

start h3co_dat

geometry
    o      0.00000000     0.00000000     0.27851507
    c      0.00000000     0.00000000     1.63192657
    h      0.26167571    -0.97658705     2.06772417
    h     -0.97658705     0.26167571     2.06772417
    h      0.71491134     0.71491134     2.06772417
end
charge -1

basis
  h library 6-31g*
  c library "Stuttgart RLC ECP"
  o library "Stuttgart RLC ECP"
end

ecp
  c library "Stuttgart RLC ECP"
  o library "Stuttgart RLC ECP"
end

cosmo
  minbem 2
  maxbem 4
  # ifscrn 1: do not correct the total surface charge
  #           this improves the convergence of the geometry
  #           optimization significantly
  #ifscrn 1
end

task scf optimize
================================================================================


                                         
                                         


             Northwest Computational Chemistry Package (NWChem) 7.0.1
             --------------------------------------------------------


                    Environmental Molecular Sciences Laboratory
                       Pacific Northwest National Laboratory
                                Richland, WA 99352

                              Copyright (c) 1994-2020
                       Pacific Northwest National Laboratory
                            Battelle Memorial Institute

             NWChem is an open-source computational chemistry package
                        distributed under the terms of the
                      Educational Community License (ECL) 2.0
             A copy of the license is included with this distribution
                              in the LICENSE.TXT file

                                  ACKNOWLEDGMENT
                                  --------------

            This software and its documentation were developed at the
            EMSL at Pacific Northwest National Laboratory, a multiprogram
            national laboratory, operated for the U.S. Department of Energy
            by Battelle under Contract Number DE-AC05-76RL01830. Support
            for this work was provided by the Department of Energy Office
            of Biological and Environmental Research, Office of Basic
            Energy Sciences, and the Office of Advanced Scientific Computing.


           Job information
           ---------------

    hostname        = WE40672
    program         = /Users/edo/nwchem/nwchem/bin/MACX64/nwchem
    date            = Mon Feb 21 10:06:39 2022

    compiled        = Mon_Feb_21_10:06:06_2022
    source          = /Users/edo/nwchem/nwchem
    nwchem branch   = 7.0.0
    nwchem revision = nwchem_on_git-3195-g27fae8c638
    ga revision     = 5.8.1
    use scalapack   = T
    input           = /Users/edo/nwchem/nwchem/QA/tests/cosmo_h3co_ecp/cosmo_h3co_ecp.nw
    prefix          = h3co_dat.
    data base       = ./h3co_dat.db
    status          = startup
    nproc           =        2
    time left       =     -1s



           Memory information
           ------------------

    heap     =   26214396 doubles =    200.0 Mbytes
    stack    =   26214401 doubles =    200.0 Mbytes
    global   =   52428800 doubles =    400.0 Mbytes (distinct from heap & stack)
    total    =  104857597 doubles =    800.0 Mbytes
    verify   = yes
    hardfail = no 


           Directory information
           ---------------------

  0 permanent = .
  0 scratch   = .




                                NWChem Input Module
                                -------------------



 Scaling coordinates for geometry "geometry" by  1.889725989
 (inverse scale =  0.529177249)

 C3V symmetry detected

          ------
          auto-z
          ------
  Looking for out-of-plane bends
  no constraints, skipping    0.0000000000000000     
  no constraints, skipping    0.0000000000000000     


                             Geometry "geometry" -> ""
                             -------------------------

 Output coordinates in angstroms (scale by  1.889725989 to convert to a.u.)

  No.       Tag          Charge          X              Y              Z
 ---- ---------------- ---------- -------------- -------------- --------------
    1 o                    8.0000    -0.00000000    -0.00000000    -0.79341743
    2 c                    6.0000     0.00000000     0.00000000     0.55999407
    3 h                    1.0000     0.71491134     0.71491134     0.99579167
    4 h                    1.0000     0.26167571    -0.97658705     0.99579167
    5 h                    1.0000    -0.97658705     0.26167571     0.99579167

      Atomic Mass 
      ----------- 

      o                 15.994910
      c                 12.000000
      h                  1.007825


 Effective nuclear repulsion energy (a.u.)      34.5058725513

            Nuclear Dipole moment (a.u.) 
            ----------------------------
        X                 Y               Z
 ---------------- ---------------- ----------------
     0.0000000000    -0.0000000000     0.0000000000

      Symmetry information
      --------------------

 Group name             C3v       
 Group number             17
 Group order               6
 No. of unique centers     3

      Symmetry unique atoms

     1    2    3



                                Z-matrix (autoz)
                                -------- 

 Units are Angstrom for bonds and degrees for angles

      Type          Name      I     J     K     L     M      Value
      ----------- --------  ----- ----- ----- ----- ----- ----------
    1 Stretch                  1     2                       1.35341
    2 Stretch                  2     3                       1.10096
    3 Stretch                  2     4                       1.10096
    4 Stretch                  2     5                       1.10096
    5 Bend                     1     2     3               113.31798
    6 Bend                     1     2     4               113.31798
    7 Bend                     1     2     5               113.31798
    8 Bend                     3     2     4               105.36538
    9 Bend                     3     2     5               105.36538
   10 Bend                     4     2     5               105.36538


            XYZ format geometry
            -------------------
     5
 geometry
 o                    -0.00000000    -0.00000000    -0.79341743
 c                     0.00000000     0.00000000     0.55999407
 h                     0.71491134     0.71491134     0.99579167
 h                     0.26167571    -0.97658705     0.99579167
 h                    -0.97658705     0.26167571     0.99579167

 ==============================================================================
                                internuclear distances
 ------------------------------------------------------------------------------
       center one      |      center two      | atomic units |  angstroms
 ------------------------------------------------------------------------------
    2 c                |   1 o                |     2.55758  |     1.35341
    3 h                |   2 c                |     2.08052  |     1.10096
    4 h                |   2 c                |     2.08052  |     1.10096
    5 h                |   2 c                |     2.08052  |     1.10096
 ------------------------------------------------------------------------------
                         number of included internuclear distances:          4
 ==============================================================================



 ==============================================================================
                                 internuclear angles
 ------------------------------------------------------------------------------
        center 1       |       center 2       |       center 3       |  degrees
 ------------------------------------------------------------------------------
    1 o                |   2 c                |   3 h                |   113.32
    1 o                |   2 c                |   4 h                |   113.32
    1 o                |   2 c                |   5 h                |   113.32
    3 h                |   2 c                |   4 h                |   105.37
    3 h                |   2 c                |   5 h                |   105.37
    4 h                |   2 c                |   5 h                |   105.37
 ------------------------------------------------------------------------------
                            number of included internuclear angles:          6
 ==============================================================================



                      Basis "ao basis" -> "" (cartesian)
                      -----
  h (Hydrogen)
  ------------
            Exponent  Coefficients 
       -------------- ---------------------------------------------------------
  1 S  1.87311370E+01  0.033495
  1 S  2.82539370E+00  0.234727
  1 S  6.40121700E-01  0.813757

  2 S  1.61277800E-01  1.000000

  c (Carbon)
  ----------
            Exponent  Coefficients 
       -------------- ---------------------------------------------------------
  1 S  2.26310100E+00  0.496548
  1 S  1.77318600E+00 -0.422391
  1 S  4.08619000E-01 -0.599356

  2 S  1.39175000E-01  1.000000

  3 P  8.38302500E+00 -0.038544
  3 P  1.99313200E+00 -0.203185
  3 P  5.59543000E-01 -0.498176

  4 P  1.56126000E-01  1.000000

  o (Oxygen)
  ----------
            Exponent  Coefficients 
       -------------- ---------------------------------------------------------
  1 S  4.71055180E+01 -0.014408
  1 S  5.91134600E+00  0.129568
  1 S  9.76483000E-01 -0.563118

  2 S  2.96070000E-01  1.000000

  3 P  1.66922190E+01  0.044856
  3 P  3.90070200E+00  0.222613
  3 P  1.07825300E+00  0.500188

  4 P  2.84189000E-01  1.000000

  5 P  7.02000000E-02  1.000000



 Summary of "ao basis" -> "" (cartesian)
 ------------------------------------------------------------------------------
       Tag                 Description            Shells   Functions and Types
 ---------------- ------------------------------  ------  ---------------------
 h                           6-31g*                  2        2   2s
 c                     Stuttgart RLC ECP             4        8   2s2p
 o                     Stuttgart RLC ECP             5       11   2s3p



 **** WARNING Zero Coefficient **** on atom "               c"
 angular momentum value:-1  standard basis set name: "Stuttgart RLC ECP"
 input line that generated warning:
  1497: 2      1.000000000            0.000000000
  
 Local ECP potential is zero and ignored
  

 **** WARNING Zero Coefficient **** on atom "               o"
 angular momentum value:-1  standard basis set name: "Stuttgart RLC ECP"
 input line that generated warning:
  1519: 2      1.000000000            0.000000000
  
 Local ECP potential is zero and ignored
  
                 ECP       "ecp basis" -> "" (cartesian)
                -----
  c (Carbon) Replaces     2 electrons
  -----------------------------------
             Channel    R-exponent     Exponent     Coefficients
         ------------ ---------------------------------------------------------
  1 U-s       Both         2.00        6.401052      33.121638

  2 U-p       Both         2.00        7.307747      -1.986257

  3 U-d       Both         2.00        5.961796      -9.454318

  o (Oxygen) Replaces     2 electrons
  -----------------------------------
             Channel    R-exponent     Exponent     Coefficients
         ------------ ---------------------------------------------------------
  1 U-s       Both         2.00       10.445670      50.771069

  2 U-p       Both         2.00       18.045174      -4.903551

  3 U-d       Both         2.00        8.164798      -3.312124



                           NWChem Geometry Optimization
                           ----------------------------


  no constraints, skipping    0.0000000000000000     
 maximum gradient threshold         (gmax) =   0.000450
 rms gradient threshold             (grms) =   0.000300
 maximum cartesian step threshold   (xmax) =   0.001800
 rms cartesian step threshold       (xrms) =   0.001200
 fixed trust radius                (trust) =   0.300000
 maximum step size to saddle      (sadstp) =   0.100000
 energy precision                  (eprec) =   1.0D-07
 maximum number of steps          (nptopt) =   40
 initial hessian option           (inhess) =    0
 line search option               (linopt) =    1
 hessian update option            (modupd) =    1
 saddle point option              (modsad) =    0
 initial eigen-mode to follow     (moddir) =    0
 initial variable to follow       (vardir) =    0
 follow first negative mode     (firstneg) =    T
 apply conjugacy                    (opcg) =    F
 source of zmatrix                         =   autoz   


          -------------------
          Energy Minimization
          -------------------


 Names of Z-matrix variables 
    1              2              3              4              5         
    6              7              8              9             10         

 Variables with the same non-blank name are constrained to be equal


 Using diagonal initial Hessian 
 Scaling for Hessian diagonals: bonds = 1.00  angles = 0.25  torsions = 0.10

          --------
          Step   0
          --------


                         Geometry "geometry" -> "geometry"
                         ---------------------------------

 Output coordinates in angstroms (scale by  1.889725989 to convert to a.u.)

  No.       Tag          Charge          X              Y              Z
 ---- ---------------- ---------- -------------- -------------- --------------
    1 o                    8.0000    -0.00000000    -0.00000000    -0.79341743
    2 c                    6.0000     0.00000000     0.00000000     0.55999407
    3 h                    1.0000     0.71491134     0.71491134     0.99579167
    4 h                    1.0000     0.26167571    -0.97658705     0.99579167
    5 h                    1.0000    -0.97658705     0.26167571     0.99579167

      Atomic Mass 
      ----------- 

      o                 15.994910
      c                 12.000000
      h                  1.007825


 Effective nuclear repulsion energy (a.u.)      34.5058725513

            Nuclear Dipole moment (a.u.) 
            ----------------------------
        X                 Y               Z
 ---------------- ---------------- ----------------
     0.0000000000    -0.0000000000     0.0000000000

      Symmetry information
      --------------------

 Group name             C3v       
 Group number             17
 Group order               6
 No. of unique centers     3

      Symmetry unique atoms

     1    2    3


 solvent parameters
 solvname_short: h2o     
 solvname_long:  water                              
 dielec:       78.4000
 dielecinf:     1.7769

          ---------------
          -cosmo- solvent
          ---------------
 Cosmo: York-Karplus, doi: 10.1021/jp992097l
 dielectric constant -eps-     =  78.40
 screen = (eps-1)/(eps    )    =   0.98724
 surface charge correction     = lagrangian

 solvent accessible surface
 --------------------------

 ---------- ATOMIC COORDINATES (A.U.) ------------ VDWR(ANG.) --
     1   -0.00000000   -0.00000000   -1.49934154     1.720
     2    0.00000000    0.00000000    1.05823535     2.000
     3    1.35098654    1.35098654    1.88177340     1.300
     4    0.49449539   -1.84548193    1.88177340     1.300
     5   -1.84548193    0.49449539    1.88177340     1.300
 number of segments per atom =         32
 number of   points per atom =         32
 atom (   nspa,  nppa )
 ----------------------
    1 (     24,     0 )       0
    2 (     25,     0 )       0
    3 (     15,     0 )       0
    4 (     15,     0 )       0
    5 (     15,     0 )       0
 number of -cosmo- surface points =       94
 molecular surface =     63.147 angstrom**2
 molecular volume  =     35.714 angstrom**3
 G(cav/disp)       =      1.176 kcal/mol
 -lineq- algorithm             =   0
 -bem- low  level              =   2
 -bem- from -octahedral-
 gaussian surface charge width =   4.50000
 degree of switching           =   1.00000
 switching function tolerance  =   0.00010
 atomic radii = 
 --------------
    1  6.000  1.720
    2  4.000  2.000
    3  1.000  1.300
    4  1.000  1.300
    5  1.000  1.300
 ...... end of -cosmo- initialization ......


                                 NWChem SCF Module
                                 -----------------



  ao basis        = "ao basis"
  functions       =    25
  atoms           =     5
  closed shells   =     7
  open shells     =     0
  charge          =  -1.00
  wavefunction    = RHF 
  input vectors   = atomic
  output vectors  = ./h3co_dat.movecs
  use symmetry    = T
  symmetry adapt  = T


 Summary of "ao basis" -> "ao basis" (cartesian)
 ------------------------------------------------------------------------------
       Tag                 Description            Shells   Functions and Types
 ---------------- ------------------------------  ------  ---------------------
 h                           6-31g*                  2        2   2s
 c                     Stuttgart RLC ECP             4        8   2s2p
 o                     Stuttgart RLC ECP             5       11   2s3p


      Symmetry analysis of basis
      --------------------------

        a1         11
        a2          0
        e          14


 Forming initial guess at       0.1s


      Superposition of Atomic Density Guess
      -------------------------------------

 Sum of atomic energies:         -24.77825633

 Renormalizing density from      13.00 to     14

      Non-variational initial energy
      ------------------------------

 Total energy =     -23.349498
 1-e energy   =     -82.297500
 2-e energy   =      38.254875
 HOMO         =       0.074599
 LUMO         =       0.383067


      Symmetry analysis of molecular orbitals - initial
      -------------------------------------------------

  Numbering of irreducible representations: 

     1 a1          2 a2          3 e       

  Orbital symmetries:

     1 a1          2 a1          3 e           4 e           5 a1      
     6 e           7 e           8 a1          9 e          10 e       
    11 a1         12 e          13 e          14 a1         15 e       
    16 e          17 a1      


 Starting SCF solution at       0.2s



 ----------------------------------------------
         Quadratically convergent ROHF

 Convergence threshold     :          1.000E-04
 Maximum no. of iterations :           30
 Final Fock-matrix accuracy:          1.000E-07
 ----------------------------------------------

     COSMO gas phase

              iter       energy          gnorm     gmax       time
             ----- ------------------- --------- --------- --------
                 1      -22.8521756376  8.22D-01  4.41D-01      0.2
                 2      -22.9031813836  1.71D-01  8.25D-02      0.5
                 3      -22.9057263966  9.64D-03  3.96D-03      0.7
                 4      -22.9057432440  4.79D-05  2.23D-05      1.1
     COSMO solvation phase

              iter       energy          gnorm     gmax       time
             ----- ------------------- --------- --------- --------
                 1      -23.0350989831  1.59D-01  7.28D-02      1.2
                 2      -23.0398965518  2.99D-02  1.49D-02      1.5
                 3      -23.0400917758  5.67D-03  2.78D-03      1.8
                 4      -23.0400986951  1.05D-03  4.88D-04      2.2
                 5      -23.0400989285  1.94D-04  9.10D-05      2.5
                 6      -23.0400989364  3.57D-05  1.74D-05      2.8
 
                  COSMO solvation results
                  -----------------------
 
                 gas phase energy =       -22.9057432440
                 sol phase energy =       -23.0400989364
 (electrostatic) solvation energy =         0.1343556924 (   84.31 kcal/mol)


       Final RHF  results 
       ------------------ 

         Total SCF energy =    -23.040098936377
      One-electron energy =    -85.293383458665
      Two-electron energy =     38.271552963008
 Nuclear repulsion energy =     20.693127128192
             COSMO energy =      3.288604431088

        Time for solution =      2.7s



       Symmetry analysis of molecular orbitals - final
       -----------------------------------------------

  Numbering of irreducible representations: 

     1 a1          2 a2          3 e       

  Orbital symmetries:

     1 a1          2 a1          3 e           4 e           5 a1      
     6 e           7 e           8 a1          9 e          10 e       
    11 a1         12 e          13 e          14 a1         15 e       
    16 e          17 a1      

             Final eigenvalues
             -----------------

              1      
    1   -1.2337
    2   -0.8539
    3   -0.5647
    4   -0.5647
    5   -0.4924
    6   -0.3329
    7   -0.3329
    8    0.1935
    9    0.2145
   10    0.2145
   11    0.2870
   12    0.3628
   13    0.3628
   14    0.4084
   15    0.8185
   16    0.8185
   17    0.9041

                       ROHF Final Molecular Orbital Analysis
                       -------------------------------------

 Vector    1  Occ=2.000000D+00  E=-1.233711D+00  Symmetry=a1
              MO Center= -2.2D-18, -5.4D-18, -4.4D-01, r^2= 6.3D-01
   Bfn.  Coefficient  Atom+Function         Bfn.  Coefficient  Atom+Function  
  ----- ------------  ---------------      ----- ------------  ---------------
     2      0.439739  1 O  s                  1     -0.392116  1 O  s          
    12     -0.243772  2 C  s          

 Vector    2  Occ=2.000000D+00  E=-8.538567D-01  Symmetry=a1
              MO Center=  1.1D-16,  2.8D-17,  5.9D-01, r^2= 1.4D+00
   Bfn.  Coefficient  Atom+Function         Bfn.  Coefficient  Atom+Function  
  ----- ------------  ---------------      ----- ------------  ---------------
    12      0.419931  2 C  s                  2      0.285457  1 O  s          
    13     -0.197424  2 C  s                  1     -0.187758  1 O  s          
    16      0.152292  2 C  pz                20     -0.150182  3 H  s          
    22     -0.150182  4 H  s                 24     -0.150182  5 H  s          

 Vector    3  Occ=2.000000D+00  E=-5.647417D-01  Symmetry=e
              MO Center=  7.2D-02,  1.6D-01,  4.5D-01, r^2= 1.5D+00
   Bfn.  Coefficient  Atom+Function         Bfn.  Coefficient  Atom+Function  
  ----- ------------  ---------------      ----- ------------  ---------------
    14      0.331090  2 C  px                20     -0.236963  3 H  s          
    15      0.230761  2 C  py                 3     -0.199869  1 O  px         
    21     -0.175726  3 H  s                 17     -0.168261  2 C  px         
    24      0.155127  5 H  s          

 Vector    4  Occ=2.000000D+00  E=-5.647417D-01  Symmetry=e
              MO Center= -7.2D-02, -1.6D-01,  4.5D-01, r^2= 1.5D+00
   Bfn.  Coefficient  Atom+Function         Bfn.  Coefficient  Atom+Function  
  ----- ------------  ---------------      ----- ------------  ---------------
    15      0.331090  2 C  py                14     -0.230761  2 C  px         
    22      0.226373  4 H  s                  4     -0.199869  1 O  py         
    24     -0.184059  5 H  s                 18     -0.168261  2 C  py         
    23      0.167873  4 H  s          

 Vector    5  Occ=2.000000D+00  E=-4.923744D-01  Symmetry=a1
              MO Center= -1.3D-17, -3.1D-17, -5.1D-01, r^2= 1.3D+00
   Bfn.  Coefficient  Atom+Function         Bfn.  Coefficient  Atom+Function  
  ----- ------------  ---------------      ----- ------------  ---------------
     5      0.458336  1 O  pz                16      0.372228  2 C  pz         
     8      0.351451  1 O  pz                 2     -0.214178  1 O  s          

 Vector    6  Occ=2.000000D+00  E=-3.328567D-01  Symmetry=e
              MO Center=  1.7D-02,  8.8D-02, -4.2D-01, r^2= 1.6D+00
   Bfn.  Coefficient  Atom+Function         Bfn.  Coefficient  Atom+Function  
  ----- ------------  ---------------      ----- ------------  ---------------
     3      0.466742  1 O  px                 6      0.415510  1 O  px         
    21     -0.281887  3 H  s                  4      0.249111  1 O  py         
     7      0.221767  1 O  py                25      0.215160  5 H  s          
    20     -0.171826  3 H  s          

 Vector    7  Occ=2.000000D+00  E=-3.328567D-01  Symmetry=e
              MO Center= -1.7D-02, -8.8D-02, -4.2D-01, r^2= 1.6D+00
   Bfn.  Coefficient  Atom+Function         Bfn.  Coefficient  Atom+Function  
  ----- ------------  ---------------      ----- ------------  ---------------
     4      0.466742  1 O  py                 7      0.415510  1 O  py         
    23      0.286970  4 H  s                  3     -0.249111  1 O  px         
     6     -0.221767  1 O  px                25     -0.201272  5 H  s          
    22      0.174925  4 H  s          

 Vector    8  Occ=0.000000D+00  E= 1.934661D-01  Symmetry=a1
              MO Center=  6.7D-17,  1.8D-17, -2.1D+00, r^2= 4.0D+00
   Bfn.  Coefficient  Atom+Function         Bfn.  Coefficient  Atom+Function  
  ----- ------------  ---------------      ----- ------------  ---------------
    11      1.433337  1 O  pz                13     -0.618102  2 C  s          
     2      0.521519  1 O  s                 19      0.271131  2 C  pz         
    21     -0.178172  3 H  s                 23     -0.178172  4 H  s          
    25     -0.178172  5 H  s                  8     -0.166815  1 O  pz         

 Vector    9  Occ=0.000000D+00  E= 2.145231D-01  Symmetry=e
              MO Center= -3.8D-02,  8.2D-02, -9.1D-01, r^2= 6.0D+00
   Bfn.  Coefficient  Atom+Function         Bfn.  Coefficient  Atom+Function  
  ----- ------------  ---------------      ----- ------------  ---------------
     9      1.218265  1 O  px                17     -0.604160  2 C  px         
    25     -0.321887  5 H  s                  6     -0.311099  1 O  px         
    21      0.291979  3 H  s                 10      0.218683  1 O  py         

 Vector   10  Occ=0.000000D+00  E= 2.145231D-01  Symmetry=e
              MO Center=  3.8D-02, -8.2D-02, -9.1D-01, r^2= 6.0D+00
   Bfn.  Coefficient  Atom+Function         Bfn.  Coefficient  Atom+Function  
  ----- ------------  ---------------      ----- ------------  ---------------
    10      1.218265  1 O  py                18     -0.604160  2 C  py         
    23     -0.354416  4 H  s                  7     -0.311099  1 O  py         
     9     -0.218683  1 O  px                21      0.203109  3 H  s          
    25      0.151307  5 H  s          

 Vector   11  Occ=0.000000D+00  E= 2.869516D-01  Symmetry=a1
              MO Center= -2.5D-16, -1.1D-15,  8.6D-01, r^2= 3.7D+00
   Bfn.  Coefficient  Atom+Function         Bfn.  Coefficient  Atom+Function  
  ----- ------------  ---------------      ----- ------------  ---------------
    13      2.535044  2 C  s                 21     -1.512037  3 H  s          
    23     -1.512037  4 H  s                 25     -1.512037  5 H  s          
    19      1.212024  2 C  pz                 2      0.321068  1 O  s          
    12     -0.260246  2 C  s                 11      0.221074  1 O  pz         
    16     -0.203723  2 C  pz         

 Vector   12  Occ=0.000000D+00  E= 3.628170D-01  Symmetry=e
              MO Center=  1.9D-02, -2.9D-01,  7.9D-01, r^2= 3.4D+00
   Bfn.  Coefficient  Atom+Function         Bfn.  Coefficient  Atom+Function  
  ----- ------------  ---------------      ----- ------------  ---------------
    23      1.986880  4 H  s                 18      1.488405  2 C  py         
    25     -1.163559  5 H  s                 21     -0.823321  3 H  s          
    17     -0.560828  2 C  px                 7     -0.398328  1 O  py         
    15     -0.309338  2 C  py                10      0.282798  1 O  py         
     4     -0.159853  1 O  py                 6      0.150089  1 O  px         

 Vector   13  Occ=0.000000D+00  E= 3.628170D-01  Symmetry=e
              MO Center= -1.9D-02,  2.9D-01,  7.9D-01, r^2= 3.4D+00
   Bfn.  Coefficient  Atom+Function         Bfn.  Coefficient  Atom+Function  
  ----- ------------  ---------------      ----- ------------  ---------------
    21      1.818907  3 H  s                 25     -1.622471  5 H  s          
    17     -1.488405  2 C  px                18     -0.560828  2 C  py         
     6      0.398328  1 O  px                14      0.309338  2 C  px         
     9     -0.282798  1 O  px                23     -0.196437  4 H  s          
     3      0.159853  1 O  px                 7      0.150089  1 O  py         

 Vector   14  Occ=0.000000D+00  E= 4.084151D-01  Symmetry=a1
              MO Center=  7.2D-16,  3.3D-17,  5.0D-01, r^2= 3.4D+00
   Bfn.  Coefficient  Atom+Function         Bfn.  Coefficient  Atom+Function  
  ----- ------------  ---------------      ----- ------------  ---------------
    13      1.707161  2 C  s                 19     -1.249194  2 C  pz         
     2     -1.229868  1 O  s                  8     -0.781293  1 O  pz         
    21     -0.543676  3 H  s                 23     -0.543676  4 H  s          
    25     -0.543676  5 H  s                 11      0.531530  1 O  pz         
     5     -0.248769  1 O  pz                12     -0.196269  2 C  s          

 Vector   15  Occ=0.000000D+00  E= 8.185153D-01  Symmetry=e
              MO Center=  2.1D-01,  8.7D-02,  4.6D-01, r^2= 2.6D+00
   Bfn.  Coefficient  Atom+Function         Bfn.  Coefficient  Atom+Function  
  ----- ------------  ---------------      ----- ------------  ---------------
    17      1.635918  2 C  px                18     -1.087361  2 C  py         
    14      0.701422  2 C  px                15     -0.466221  2 C  py         
    25      0.418759  5 H  s                 24      0.407605  5 H  s          
     9     -0.392146  1 O  px                23     -0.331505  4 H  s          
    22     -0.322676  4 H  s                 10      0.260652  1 O  py         

 Vector   16  Occ=0.000000D+00  E= 8.185153D-01  Symmetry=e
              MO Center= -2.1D-01, -8.7D-02,  4.6D-01, r^2= 2.6D+00
   Bfn.  Coefficient  Atom+Function         Bfn.  Coefficient  Atom+Function  
  ----- ------------  ---------------      ----- ------------  ---------------
    18      1.635918  2 C  py                17      1.087361  2 C  px         
    15      0.701422  2 C  py                14      0.466221  2 C  px         
    21     -0.433165  3 H  s                 20     -0.421628  3 H  s          
    10     -0.392146  1 O  py                23      0.292146  4 H  s          
    22      0.284365  4 H  s                  9     -0.260652  1 O  px         

 Vector   17  Occ=0.000000D+00  E= 9.040550D-01  Symmetry=a1
              MO Center= -1.1D-16, -8.7D-17,  2.1D-01, r^2= 1.3D+00
   Bfn.  Coefficient  Atom+Function         Bfn.  Coefficient  Atom+Function  
  ----- ------------  ---------------      ----- ------------  ---------------
    16      1.110090  2 C  pz                19      0.946103  2 C  pz         
    13      0.802106  2 C  s                  8     -0.413813  1 O  pz         
     5     -0.408591  1 O  pz                21     -0.368550  3 H  s          
    23     -0.368550  4 H  s                 25     -0.368550  5 H  s          
    12     -0.338534  2 C  s                  1      0.172558  1 O  s          


 center of mass
 --------------
 x =   0.00000000 y =  -0.00000000 z =  -0.18032899

 moments of inertia (a.u.)
 ------------------
          64.611309796422           0.000000000000           0.000000000000
           0.000000000000          64.611309796422           0.000000000000
           0.000000000000           0.000000000000          11.036679212476

  Mulliken analysis of the total density
  --------------------------------------

    Atom       Charge   Shell Charges
 -----------   ------   -------------------------------------------------------
    1 O    6     7.09   0.83  1.04  2.71  2.21  0.30
    2 C    4     4.08   0.89  0.32  2.00  0.87
    3 H    1     0.94   0.56  0.38
    4 H    1     0.94   0.56  0.38
    5 H    1     0.94   0.56  0.38

       Multipole analysis of the density wrt the origin
       ------------------------------------------------

     L   x y z        total         open         nuclear
     -   - - -        -----         ----         -------
     0   0 0 0     -1.000000      0.000000     13.000000

     1   1 0 0     -0.000000      0.000000      0.000000
     1   0 1 0      0.000000      0.000000     -0.000000
     1   0 0 1      2.019630      0.000000      0.882212

     2   2 0 0    -11.854694      0.000000      5.475494
     2   1 1 0      0.000000      0.000000      0.000000
     2   1 0 1     -0.000000      0.000000      0.000000
     2   0 2 0    -11.854694      0.000000      5.475494
     2   0 1 1      0.000000      0.000000     -0.000000
     2   0 0 2    -15.593485      0.000000     28.590812

                              NWChem Gradients Module
                              -----------------------



  wavefunction    =   RHF     

  Using symmetry


                         RHF ENERGY GRADIENTS

    atom               coordinates                        gradient
                 x          y          z           x          y          z
   1 o      -0.000000  -0.000000  -1.499342    0.000000   0.000000   0.047488
   2 c       0.000000   0.000000   1.058235    0.000000   0.000000  -0.045936
   3 h       1.350987   1.350987   1.881773    0.001900   0.001900  -0.000517
   4 h       0.494495  -1.845482   1.881773    0.000695  -0.002595  -0.000517
   5 h      -1.845482   0.494495   1.881773   -0.002595   0.000695  -0.000517

                 ----------------------------------------
                 |  Time  |  1-e(secs)   |  2-e(secs)   |
                 ----------------------------------------
                 |  CPU   |       0.01   |       0.10   |
                 ----------------------------------------
                 |  WALL  |       0.01   |       0.10   |
                 ----------------------------------------
  no constraints, skipping    0.0000000000000000     

@ Step       Energy      Delta E   Gmax     Grms     Xrms     Xmax   Walltime
@ ---- ---------------- -------- -------- -------- -------- -------- --------
@    0     -23.04009894  0.0D+00  0.04749  0.01508  0.00000  0.00000      3.2
                                                                    



                                Z-matrix (autoz)
                                -------- 

 Units are Angstrom for bonds and degrees for angles

      Type          Name      I     J     K     L     M      Value     Gradient
      ----------- --------  ----- ----- ----- ----- ----- ---------- ----------
    1 Stretch                  1     2                       1.35341   -0.04749
    2 Stretch                  2     3                       1.10096    0.00226
    3 Stretch                  2     4                       1.10096    0.00226
    4 Stretch                  2     5                       1.10096    0.00226
    5 Bend                     1     2     3               113.31798   -0.00074
    6 Bend                     1     2     4               113.31798   -0.00074
    7 Bend                     1     2     5               113.31798   -0.00074
    8 Bend                     3     2     4               105.36538    0.00084
    9 Bend                     3     2     5               105.36538    0.00084
   10 Bend                     4     2     5               105.36538    0.00084

  no constraints, skipping    0.0000000000000000     
  no constraints, skipping    0.0000000000000000     
  no constraints, skipping    0.0000000000000000     
  no constraints, skipping    0.0000000000000000     
  no constraints, skipping    0.0000000000000000     
  no constraints, skipping    0.0000000000000000     
  no constraints, skipping    0.0000000000000000     
  no constraints, skipping    0.0000000000000000     

 solvent parameters
 solvname_short: h2o     
 solvname_long:  water                              
 dielec:       78.4000
 dielecinf:     1.7769

          ---------------
          -cosmo- solvent
          ---------------
 Cosmo: York-Karplus, doi: 10.1021/jp992097l
 dielectric constant -eps-     =  78.40
 screen = (eps-1)/(eps    )    =   0.98724
 surface charge correction     = lagrangian

 solvent accessible surface
 --------------------------

 ---------- ATOMIC COORDINATES (A.U.) ------------ VDWR(ANG.) --
     1    0.00000000    0.00000000   -1.59712182     1.720
     2    0.00000000    0.00000000    1.07408669     2.000
     3    1.34231260    1.34231260    1.90908305     1.300
     4    0.49132051   -1.83363311    1.90908305     1.300
     5   -1.83363311    0.49132051    1.90908305     1.300
 number of segments per atom =         32
 number of   points per atom =         32
 atom (   nspa,  nppa )
 ----------------------
    1 (     24,     0 )       0
    2 (     25,     0 )       0
    3 (     15,     0 )       0
    4 (     15,     0 )       0
    5 (     15,     0 )       0
 number of -cosmo- surface points =       94
 molecular surface =     64.039 angstrom**2
 molecular volume  =     36.273 angstrom**3
 G(cav/disp)       =      1.180 kcal/mol
 -lineq- algorithm             =   0
 -bem- low  level              =   2
 -bem- from -octahedral-
 gaussian surface charge width =   4.50000
 degree of switching           =   1.00000
 switching function tolerance  =   0.00010
 atomic radii = 
 --------------
    1  6.000  1.720
    2  4.000  2.000
    3  1.000  1.300
    4  1.000  1.300
    5  1.000  1.300
 ...... end of -cosmo- initialization ......


                                 NWChem SCF Module
                                 -----------------



  ao basis        = "ao basis"
  functions       =    25
  atoms           =     5
  closed shells   =     7
  open shells     =     0
  charge          =  -1.00
  wavefunction    = RHF 
  input vectors   = ./h3co_dat.movecs
  output vectors  = ./h3co_dat.movecs
  use symmetry    = T
  symmetry adapt  = T


 Summary of "ao basis" -> "ao basis" (cartesian)
 ------------------------------------------------------------------------------
       Tag                 Description            Shells   Functions and Types
 ---------------- ------------------------------  ------  ---------------------
 h                           6-31g*                  2        2   2s
 c                     Stuttgart RLC ECP             4        8   2s2p
 o                     Stuttgart RLC ECP             5       11   2s3p


      Symmetry analysis of basis
      --------------------------

        a1         11
        a2          0
        e          14


 Forming initial guess at       3.2s


 Loading old vectors from job with title :




      Symmetry analysis of molecular orbitals - initial
      -------------------------------------------------

  Numbering of irreducible representations: 

     1 a1          2 a2          3 e       

  Orbital symmetries:

     1 a1          2 a1          3 e           4 e           5 a1      
     6 e           7 e           8 a1          9 e          10 e       
    11 a1         12 e          13 e          14 a1         15 e       
    16 e          17 a1      


 Starting SCF solution at       3.3s



 ----------------------------------------------
         Quadratically convergent ROHF

 Convergence threshold     :          1.000E-04
 Maximum no. of iterations :           30
 Final Fock-matrix accuracy:          1.000E-07
 ----------------------------------------------

     COSMO gas phase

              iter       energy          gnorm     gmax       time
             ----- ------------------- --------- --------- --------
                 1      -22.8993740832  2.28D-01  1.28D-01      3.3
                 2      -22.9058428280  1.28D-01  6.00D-02      3.4
                 3      -22.9070858354  9.29D-03  3.04D-03      3.7
                 4      -22.9071027043  6.71D-05  2.71D-05      4.1
     COSMO solvation phase

              iter       energy          gnorm     gmax       time
             ----- ------------------- --------- --------- --------
                 1      -23.0372043131  1.64D-01  8.42D-02      4.2
                 2      -23.0424331726  3.18D-02  1.77D-02      4.5
                 3      -23.0426595071  6.25D-03  3.36D-03      4.9
                 4      -23.0426679337  1.19D-03  6.23D-04      5.3
                 5      -23.0426682437  2.28D-04  1.19D-04      5.7
                 6      -23.0426682550  4.41D-05  2.41D-05      5.9
 
                  COSMO solvation results
                  -----------------------
 
                 gas phase energy =       -22.9071027043
                 sol phase energy =       -23.0426682550
 (electrostatic) solvation energy =         0.1355655507 (   85.07 kcal/mol)


       Final RHF  results 
       ------------------ 

         Total SCF energy =    -23.042668255044
      One-electron energy =    -84.366689761031
      Two-electron energy =     37.837956327125
 Nuclear repulsion energy =     20.198013581130
             COSMO energy =      3.288051597731

        Time for solution =      2.8s



       Symmetry analysis of molecular orbitals - final
       -----------------------------------------------

  Numbering of irreducible representations: 

     1 a1          2 a2          3 e       

  Orbital symmetries:

     1 a1          2 a1          3 e           4 e           5 a1      
     6 e           7 e           8 a1          9 e          10 e       
    11 a1         12 e          13 e          14 a1         15 e       
    16 e          17 a1      

             Final eigenvalues
             -----------------

              1      
    1   -1.2072
    2   -0.8649
    3   -0.5578
    4   -0.5578
    5   -0.4787
    6   -0.3395
    7   -0.3395
    8    0.1921
    9    0.2174
   10    0.2174
   11    0.2869
   12    0.3589
   13    0.3589
   14    0.3958
   15    0.8121
   16    0.8121
   17    0.8498

                       ROHF Final Molecular Orbital Analysis
                       -------------------------------------

 Vector    1  Occ=2.000000D+00  E=-1.207203D+00  Symmetry=a1
              MO Center=  2.5D-18,  2.0D-18, -5.1D-01, r^2= 6.6D-01
   Bfn.  Coefficient  Atom+Function         Bfn.  Coefficient  Atom+Function  
  ----- ------------  ---------------      ----- ------------  ---------------
     2      0.457356  1 O  s                  1     -0.396430  1 O  s          
    12     -0.229059  2 C  s          

 Vector    2  Occ=2.000000D+00  E=-8.649159D-01  Symmetry=a1
              MO Center=  3.7D-17,  2.8D-17,  6.0D-01, r^2= 1.4D+00
   Bfn.  Coefficient  Atom+Function         Bfn.  Coefficient  Atom+Function  
  ----- ------------  ---------------      ----- ------------  ---------------
    12      0.425375  2 C  s                  2      0.273746  1 O  s          
    13     -0.197434  2 C  s                  1     -0.183774  1 O  s          
    20     -0.150403  3 H  s                 22     -0.150403  4 H  s          
    24     -0.150403  5 H  s          

 Vector    3  Occ=2.000000D+00  E=-5.578359D-01  Symmetry=e
              MO Center=  7.7D-02,  1.7D-01,  5.0D-01, r^2= 1.5D+00
   Bfn.  Coefficient  Atom+Function         Bfn.  Coefficient  Atom+Function  
  ----- ------------  ---------------      ----- ------------  ---------------
    14      0.334377  2 C  px                20     -0.245818  3 H  s          
    15      0.233052  2 C  py                21     -0.185652  3 H  s          
     3     -0.182897  1 O  px                17     -0.170818  2 C  px         
    24      0.160923  5 H  s          

 Vector    4  Occ=2.000000D+00  E=-5.578359D-01  Symmetry=e
              MO Center= -7.7D-02, -1.7D-01,  5.0D-01, r^2= 1.5D+00
   Bfn.  Coefficient  Atom+Function         Bfn.  Coefficient  Atom+Function  
  ----- ------------  ---------------      ----- ------------  ---------------
    15      0.334377  2 C  py                22      0.234832  4 H  s          
    14     -0.233052  2 C  px                24     -0.190937  5 H  s          
     4     -0.182897  1 O  py                23      0.177356  4 H  s          
    18     -0.170818  2 C  py         

 Vector    5  Occ=2.000000D+00  E=-4.786573D-01  Symmetry=a1
              MO Center=  4.9D-18,  1.0D-18, -5.1D-01, r^2= 1.4D+00
   Bfn.  Coefficient  Atom+Function         Bfn.  Coefficient  Atom+Function  
  ----- ------------  ---------------      ----- ------------  ---------------
     5      0.451360  1 O  pz                16      0.369993  2 C  pz         
     8      0.355638  1 O  pz                 2     -0.206842  1 O  s          

 Vector    6  Occ=2.000000D+00  E=-3.394700D-01  Symmetry=e
              MO Center= -2.1D-02,  7.1D-02, -5.2D-01, r^2= 1.5D+00
   Bfn.  Coefficient  Atom+Function         Bfn.  Coefficient  Atom+Function  
  ----- ------------  ---------------      ----- ------------  ---------------
     3      0.521494  1 O  px                 6      0.456159  1 O  px         
    25      0.234654  5 H  s                 21     -0.231429  3 H  s          
     9      0.163905  1 O  px                14      0.152254  2 C  px         

 Vector    7  Occ=2.000000D+00  E=-3.394700D-01  Symmetry=e
              MO Center=  2.1D-02, -7.1D-02, -5.2D-01, r^2= 1.5D+00
   Bfn.  Coefficient  Atom+Function         Bfn.  Coefficient  Atom+Function  
  ----- ------------  ---------------      ----- ------------  ---------------
     4      0.521494  1 O  py                 7      0.456159  1 O  py         
    23      0.269094  4 H  s                 22      0.165833  4 H  s          
    10      0.163905  1 O  py                15      0.152254  2 C  py         

 Vector    8  Occ=0.000000D+00  E= 1.920638D-01  Symmetry=a1
              MO Center= -4.9D-17, -2.3D-17, -2.1D+00, r^2= 4.1D+00
   Bfn.  Coefficient  Atom+Function         Bfn.  Coefficient  Atom+Function  
  ----- ------------  ---------------      ----- ------------  ---------------
    11      1.418935  1 O  pz                13     -0.681717  2 C  s          
     2      0.532893  1 O  s                 19      0.315606  2 C  pz         
    21     -0.151190  3 H  s                 23     -0.151190  4 H  s          
    25     -0.151190  5 H  s          

 Vector    9  Occ=0.000000D+00  E= 2.173637D-01  Symmetry=e
              MO Center= -7.8D-02,  3.7D-02, -9.7D-01, r^2= 6.0D+00
   Bfn.  Coefficient  Atom+Function         Bfn.  Coefficient  Atom+Function  
  ----- ------------  ---------------      ----- ------------  ---------------
     9      1.216225  1 O  px                17     -0.592014  2 C  px         
    25     -0.355802  5 H  s                  6     -0.330758  1 O  px         
    10     -0.211309  1 O  py                21      0.205638  3 H  s          
     3     -0.156555  1 O  px                23      0.150164  4 H  s          

 Vector   10  Occ=0.000000D+00  E= 2.173637D-01  Symmetry=e
              MO Center=  7.8D-02, -3.7D-02, -9.7D-01, r^2= 6.0D+00
   Bfn.  Coefficient  Atom+Function         Bfn.  Coefficient  Atom+Function  
  ----- ------------  ---------------      ----- ------------  ---------------
    10      1.216225  1 O  py                18     -0.592014  2 C  py         
     7     -0.330758  1 O  py                23     -0.324147  4 H  s          
    21      0.292119  3 H  s                  9      0.211309  1 O  px         
     4     -0.156555  1 O  py         

 Vector   11  Occ=0.000000D+00  E= 2.869341D-01  Symmetry=a1
              MO Center= -1.2D-15, -7.8D-16,  8.7D-01, r^2= 3.7D+00
   Bfn.  Coefficient  Atom+Function         Bfn.  Coefficient  Atom+Function  
  ----- ------------  ---------------      ----- ------------  ---------------
    13      2.584153  2 C  s                 21     -1.534671  3 H  s          
    23     -1.534671  4 H  s                 25     -1.534671  5 H  s          
    19      1.238560  2 C  pz                 2      0.312262  1 O  s          
    12     -0.259837  2 C  s                 11      0.233064  1 O  pz         
    16     -0.202985  2 C  pz         

 Vector   12  Occ=0.000000D+00  E= 3.588954D-01  Symmetry=e
              MO Center= -2.9D-01, -1.1D-01,  8.2D-01, r^2= 3.4D+00
   Bfn.  Coefficient  Atom+Function         Bfn.  Coefficient  Atom+Function  
  ----- ------------  ---------------      ----- ------------  ---------------
    25      1.887460  5 H  s                 23     -1.484208  4 H  s          
    17      1.307980  2 C  px                18     -0.859068  2 C  py         
    21     -0.403252  3 H  s                  6     -0.328487  1 O  px         
    14     -0.276961  2 C  px                 9      0.236557  1 O  px         
     7      0.215747  1 O  py                15      0.181905  2 C  py         

 Vector   13  Occ=0.000000D+00  E= 3.588954D-01  Symmetry=e
              MO Center=  2.9D-01,  1.1D-01,  8.2D-01, r^2= 3.4D+00
   Bfn.  Coefficient  Atom+Function         Bfn.  Coefficient  Atom+Function  
  ----- ------------  ---------------      ----- ------------  ---------------
    21      1.946634  3 H  s                 23     -1.322543  4 H  s          
    18     -1.307980  2 C  py                17     -0.859068  2 C  px         
    25     -0.624090  5 H  s                  7      0.328487  1 O  py         
    15      0.276961  2 C  py                10     -0.236557  1 O  py         
     6      0.215747  1 O  px                14      0.181905  2 C  px         

 Vector   14  Occ=0.000000D+00  E= 3.958222D-01  Symmetry=a1
              MO Center= -3.8D-17,  2.8D-16,  3.9D-01, r^2= 3.4D+00
   Bfn.  Coefficient  Atom+Function         Bfn.  Coefficient  Atom+Function  
  ----- ------------  ---------------      ----- ------------  ---------------
    13      1.504612  2 C  s                 19     -1.156979  2 C  pz         
     2     -1.084996  1 O  s                  8     -0.809267  1 O  pz         
    11      0.549329  1 O  pz                21     -0.500746  3 H  s          
    23     -0.500746  4 H  s                 25     -0.500746  5 H  s          
     5     -0.284089  1 O  pz                12     -0.212248  2 C  s          

 Vector   15  Occ=0.000000D+00  E= 8.120541D-01  Symmetry=e
              MO Center=  1.8D-01, -1.3D-01,  4.6D-01, r^2= 2.6D+00
   Bfn.  Coefficient  Atom+Function         Bfn.  Coefficient  Atom+Function  
  ----- ------------  ---------------      ----- ------------  ---------------
    17      1.904011  2 C  px                14      0.824949  2 C  px         
     9     -0.451853  1 O  px                24      0.434878  5 H  s          
    25      0.405792  5 H  s                 20     -0.286449  3 H  s          
    21     -0.267290  3 H  s                  6     -0.241909  1 O  px         
    18     -0.153746  2 C  py         

 Vector   16  Occ=0.000000D+00  E= 8.120541D-01  Symmetry=e
              MO Center= -1.8D-01,  1.3D-01,  4.6D-01, r^2= 2.6D+00
   Bfn.  Coefficient  Atom+Function         Bfn.  Coefficient  Atom+Function  
  ----- ------------  ---------------      ----- ------------  ---------------
    18      1.904011  2 C  py                15      0.824949  2 C  py         
    10     -0.451853  1 O  py                22      0.416458  4 H  s          
    23      0.388604  4 H  s                 20     -0.336773  3 H  s          
    21     -0.314248  3 H  s                  7     -0.241909  1 O  py         
    17      0.153746  2 C  px         

 Vector   17  Occ=0.000000D+00  E= 8.497752D-01  Symmetry=a1
              MO Center= -4.0D-17,  1.2D-17,  2.7D-01, r^2= 1.4D+00
   Bfn.  Coefficient  Atom+Function         Bfn.  Coefficient  Atom+Function  
  ----- ------------  ---------------      ----- ------------  ---------------
    16      1.070400  2 C  pz                19      1.049550  2 C  pz         
    13      0.496500  2 C  s                  5     -0.396590  1 O  pz         
    12     -0.342235  2 C  s                 21     -0.288328  3 H  s          
    23     -0.288328  4 H  s                 25     -0.288328  5 H  s          
     2      0.278290  1 O  s                  8     -0.258769  1 O  pz         


 center of mass
 --------------
 x =   0.00000000 y =   0.00000000 z =  -0.22195593

 moments of inertia (a.u.)
 ------------------
          69.582687424331           0.000000000000          -0.000000000000
           0.000000000000          69.582687424331          -0.000000000000
          -0.000000000000          -0.000000000000          10.895413370155

  Mulliken analysis of the total density
  --------------------------------------

    Atom       Charge   Shell Charges
 -----------   ------   -------------------------------------------------------
    1 O    6     7.12   0.83  1.05  2.68  2.23  0.33
    2 C    4     4.09   0.89  0.33  1.98  0.89
    3 H    1     0.93   0.56  0.37
    4 H    1     0.93   0.56  0.37
    5 H    1     0.93   0.56  0.37

       Multipole analysis of the density wrt the origin
       ------------------------------------------------

     L   x y z        total         open         nuclear
     -   - - -        -----         ----         -------
     0   0 0 0     -1.000000      0.000000     13.000000

     1   1 0 0     -0.000000      0.000000      0.000000
     1   0 1 0      0.000000      0.000000      0.000000
     1   0 0 1      2.188345      0.000000      0.440865

     2   2 0 0    -11.896889      0.000000      5.405409
     2   1 1 0     -0.000000      0.000000      0.000000
     2   1 0 1     -0.000000      0.000000      0.000000
     2   0 2 0    -11.896889      0.000000      5.405409
     2   0 1 1      0.000000      0.000000      0.000000
     2   0 0 2    -15.760592      0.000000     30.853232

 Line search: 
     step= 1.00 grad=-5.5D-03 hess= 2.9D-03 energy=    -23.042668 mode=accept  
 new step= 1.00                   predicted energy=    -23.042668
  no constraints, skipping    0.0000000000000000     
  no constraints, skipping    0.0000000000000000     
  no constraints, skipping    0.0000000000000000     
  no constraints, skipping    0.0000000000000000     
  no constraints, skipping    0.0000000000000000     
  no constraints, skipping    0.0000000000000000     
  no constraints, skipping    0.0000000000000000     
  no constraints, skipping    0.0000000000000000     

          --------
          Step   1
          --------


                         Geometry "geometry" -> "geometry"
                         ---------------------------------

 Output coordinates in angstroms (scale by  1.889725989 to convert to a.u.)

  No.       Tag          Charge          X              Y              Z
 ---- ---------------- ---------- -------------- -------------- --------------
    1 o                    8.0000     0.00000000     0.00000000    -0.84516053
    2 c                    6.0000     0.00000000     0.00000000     0.56838224
    3 h                    1.0000     0.71032129     0.71032129     1.01024331
    4 h                    1.0000     0.25999564    -0.97031693     1.01024331
    5 h                    1.0000    -0.97031693     0.25999564     1.01024331

      Atomic Mass 
      ----------- 

      o                 15.994910
      c                 12.000000
      h                  1.007825


 Effective nuclear repulsion energy (a.u.)      33.5807381015

            Nuclear Dipole moment (a.u.) 
            ----------------------------
        X                 Y               Z
 ---------------- ---------------- ----------------
     0.0000000000     0.0000000000    -0.6052052805

      Symmetry information
      --------------------

 Group name             C3v       
 Group number             17
 Group order               6
 No. of unique centers     3

      Symmetry unique atoms

     1    2    3


 solvent parameters
 solvname_short: h2o     
 solvname_long:  water                              
 dielec:       78.4000
 dielecinf:     1.7769

          ---------------
          -cosmo- solvent
          ---------------
 Cosmo: York-Karplus, doi: 10.1021/jp992097l
 dielectric constant -eps-     =  78.40
 screen = (eps-1)/(eps    )    =   0.98724
 surface charge correction     = lagrangian

 solvent accessible surface
 --------------------------

 ---------- ATOMIC COORDINATES (A.U.) ------------ VDWR(ANG.) --
     1    0.00000000    0.00000000   -1.59712182     1.720
     2    0.00000000    0.00000000    1.07408669     2.000
     3    1.34231260    1.34231260    1.90908305     1.300
     4    0.49132051   -1.83363311    1.90908305     1.300
     5   -1.83363311    0.49132051    1.90908305     1.300
 number of segments per atom =         32
 number of   points per atom =         32
 atom (   nspa,  nppa )
 ----------------------
    1 (     24,     0 )       0
    2 (     25,     0 )       0
    3 (     15,     0 )       0
    4 (     15,     0 )       0
    5 (     15,     0 )       0
 number of -cosmo- surface points =       94
 molecular surface =     64.039 angstrom**2
 molecular volume  =     36.273 angstrom**3
 G(cav/disp)       =      1.180 kcal/mol
 -lineq- algorithm             =   0
 -bem- low  level              =   2
 -bem- from -octahedral-
 gaussian surface charge width =   4.50000
 degree of switching           =   1.00000
 switching function tolerance  =   0.00010
 atomic radii = 
 --------------
    1  6.000  1.720
    2  4.000  2.000
    3  1.000  1.300
    4  1.000  1.300
    5  1.000  1.300
 ...... end of -cosmo- initialization ......


                                 NWChem SCF Module
                                 -----------------



  ao basis        = "ao basis"
  functions       =    25
  atoms           =     5
  closed shells   =     7
  open shells     =     0
  charge          =  -1.00
  wavefunction    = RHF 
  input vectors   = ./h3co_dat.movecs
  output vectors  = ./h3co_dat.movecs
  use symmetry    = T
  symmetry adapt  = T


 Summary of "ao basis" -> "ao basis" (cartesian)
 ------------------------------------------------------------------------------
       Tag                 Description            Shells   Functions and Types
 ---------------- ------------------------------  ------  ---------------------
 h                           6-31g*                  2        2   2s
 c                     Stuttgart RLC ECP             4        8   2s2p
 o                     Stuttgart RLC ECP             5       11   2s3p


      Symmetry analysis of basis
      --------------------------

        a1         11
        a2          0
        e          14


  The SCF is already converged 

         Total SCF energy =    -23.042668255044

                              NWChem Gradients Module
                              -----------------------



  wavefunction    =   RHF     

  Using symmetry


                         RHF ENERGY GRADIENTS

    atom               coordinates                        gradient
                 x          y          z           x          y          z
   1 o       0.000000   0.000000  -1.597122   -0.000000   0.000000   0.000485
   2 c       0.000000   0.000000   1.074087   -0.000000  -0.000000  -0.013699
   3 h       1.342313   1.342313   1.909083    0.000740   0.000740   0.004405
   4 h       0.491321  -1.833633   1.909083    0.000271  -0.001010   0.004405
   5 h      -1.833633   0.491321   1.909083   -0.001010   0.000271   0.004405

                 ----------------------------------------
                 |  Time  |  1-e(secs)   |  2-e(secs)   |
                 ----------------------------------------
                 |  CPU   |       0.01   |       0.09   |
                 ----------------------------------------
                 |  WALL  |       0.01   |       0.09   |
                 ----------------------------------------
  no constraints, skipping    0.0000000000000000     

  Step       Energy      Delta E   Gmax     Grms     Xrms     Xmax   Walltime
  ---- ---------------- -------- -------- -------- -------- -------- --------
@    1     -23.04266826 -2.6D-03  0.00273  0.00207  0.02885  0.09771      6.3
                                                                    



                                Z-matrix (autoz)
                                -------- 

 Units are Angstrom for bonds and degrees for angles

      Type          Name      I     J     K     L     M      Value     Gradient
      ----------- --------  ----- ----- ----- ----- ----- ---------- ----------
    1 Stretch                  1     2                       1.41354   -0.00048
    2 Stretch                  2     3                       1.09743    0.00273
    3 Stretch                  2     4                       1.09743    0.00273
    4 Stretch                  2     5                       1.09743    0.00273
    5 Bend                     1     2     3               113.74284    0.00172
    6 Bend                     1     2     4               113.74284    0.00172
    7 Bend                     1     2     5               113.74284    0.00172
    8 Bend                     3     2     4               104.88209   -0.00196
    9 Bend                     3     2     5               104.88209   -0.00196
   10 Bend                     4     2     5               104.88209   -0.00196

  no constraints, skipping    0.0000000000000000     
  no constraints, skipping    0.0000000000000000     
  no constraints, skipping    0.0000000000000000     
  no constraints, skipping    0.0000000000000000     
  no constraints, skipping    0.0000000000000000     
  no constraints, skipping    0.0000000000000000     
  no constraints, skipping    0.0000000000000000     
  no constraints, skipping    0.0000000000000000     

 solvent parameters
 solvname_short: h2o     
 solvname_long:  water                              
 dielec:       78.4000
 dielecinf:     1.7769

          ---------------
          -cosmo- solvent
          ---------------
 Cosmo: York-Karplus, doi: 10.1021/jp992097l
 dielectric constant -eps-     =  78.40
 screen = (eps-1)/(eps    )    =   0.98724
 surface charge correction     = lagrangian

 solvent accessible surface
 --------------------------

 ---------- ATOMIC COORDINATES (A.U.) ------------ VDWR(ANG.) --
     1    0.00000000    0.00000000   -1.58446748     1.720
     2   -0.00000000   -0.00000000    1.09701607     2.000
     3    1.34634221    1.34634221    1.89722181     1.300
     4    0.49279545   -1.83913766    1.89722181     1.300
     5   -1.83913766    0.49279545    1.89722181     1.300
 number of segments per atom =         32
 number of   points per atom =         32
 atom (   nspa,  nppa )
 ----------------------
    1 (     24,     0 )       0
    2 (     25,     0 )       0
    3 (     15,     0 )       0
    4 (     15,     0 )       0
    5 (     15,     0 )       0
 number of -cosmo- surface points =       94
 molecular surface =     63.805 angstrom**2
 molecular volume  =     36.136 angstrom**3
 G(cav/disp)       =      1.179 kcal/mol
 -lineq- algorithm             =   0
 -bem- low  level              =   2
 -bem- from -octahedral-
 gaussian surface charge width =   4.50000
 degree of switching           =   1.00000
 switching function tolerance  =   0.00010
 atomic radii = 
 --------------
    1  6.000  1.720
    2  4.000  2.000
    3  1.000  1.300
    4  1.000  1.300
    5  1.000  1.300
 ...... end of -cosmo- initialization ......


                                 NWChem SCF Module
                                 -----------------



  ao basis        = "ao basis"
  functions       =    25
  atoms           =     5
  closed shells   =     7
  open shells     =     0
  charge          =  -1.00
  wavefunction    = RHF 
  input vectors   = ./h3co_dat.movecs
  output vectors  = ./h3co_dat.movecs
  use symmetry    = T
  symmetry adapt  = T


 Summary of "ao basis" -> "ao basis" (cartesian)
 ------------------------------------------------------------------------------
       Tag                 Description            Shells   Functions and Types
 ---------------- ------------------------------  ------  ---------------------
 h                           6-31g*                  2        2   2s
 c                     Stuttgart RLC ECP             4        8   2s2p
 o                     Stuttgart RLC ECP             5       11   2s3p


      Symmetry analysis of basis
      --------------------------

        a1         11
        a2          0
        e          14


 Forming initial guess at       6.4s


 Loading old vectors from job with title :




      Symmetry analysis of molecular orbitals - initial
      -------------------------------------------------

  Numbering of irreducible representations: 

     1 a1          2 a2          3 e       

  Orbital symmetries:

     1 a1          2 a1          3 e           4 e           5 a1      
     6 e           7 e           8 a1          9 e          10 e       
    11 a1         12 e          13 e          14 a1         15 e       
    16 e          17 a1      


 Starting SCF solution at       6.4s



 ----------------------------------------------
         Quadratically convergent ROHF

 Convergence threshold     :          1.000E-04
 Maximum no. of iterations :           30
 Final Fock-matrix accuracy:          1.000E-07
 ----------------------------------------------

     COSMO gas phase

              iter       energy          gnorm     gmax       time
             ----- ------------------- --------- --------- --------
                 1      -22.9006305074  1.89D-01  1.07D-01      6.5
                 2      -22.9059193973  1.09D-01  4.22D-02      6.6
                 3      -22.9068015353  6.58D-03  2.36D-03      6.9
                 4      -22.9068109699  1.71D-05  5.87D-06      7.3
     COSMO solvation phase

              iter       energy          gnorm     gmax       time
             ----- ------------------- --------- --------- --------
                 1      -23.0374420347  1.65D-01  8.62D-02      7.3
                 2      -23.0427214940  3.15D-02  1.79D-02      7.7
                 3      -23.0429451150  6.14D-03  3.36D-03      8.1
                 4      -23.0429532878  1.16D-03  6.17D-04      8.4
                 5      -23.0429535835  2.20D-04  1.17D-04      8.8
                 6      -23.0429535942  4.22D-05  2.34D-05      9.0
 
                  COSMO solvation results
                  -----------------------
 
                 gas phase energy =       -22.9068109699
                 sol phase energy =       -23.0429535942
 (electrostatic) solvation energy =         0.1361426242 (   85.43 kcal/mol)


       Final RHF  results 
       ------------------ 

         Total SCF energy =    -23.042953594168
      One-electron energy =    -84.392867123661
      Two-electron energy =     37.853432801023
 Nuclear repulsion energy =     20.206094252567
             COSMO energy =      3.290386475903

        Time for solution =      2.7s



       Symmetry analysis of molecular orbitals - final
       -----------------------------------------------

  Numbering of irreducible representations: 

     1 a1          2 a2          3 e       

  Orbital symmetries:

     1 a1          2 a1          3 e           4 e           5 a1      
     6 e           7 e           8 a1          9 e          10 e       
    11 a1         12 e          13 e          14 a1         15 e       
    16 e          17 a1      

             Final eigenvalues
             -----------------

              1      
    1   -1.2046
    2   -0.8650
    3   -0.5600
    4   -0.5600
    5   -0.4749
    6   -0.3392
    7   -0.3392
    8    0.1919
    9    0.2178
   10    0.2178
   11    0.2877
   12    0.3592
   13    0.3592
   14    0.3967
   15    0.8090
   16    0.8090
   17    0.8461

                       ROHF Final Molecular Orbital Analysis
                       -------------------------------------

 Vector    1  Occ=2.000000D+00  E=-1.204634D+00  Symmetry=a1
              MO Center= -1.8D-18, -7.1D-19, -5.0D-01, r^2= 6.7D-01
   Bfn.  Coefficient  Atom+Function         Bfn.  Coefficient  Atom+Function  
  ----- ------------  ---------------      ----- ------------  ---------------
     2      0.457974  1 O  s                  1     -0.395915  1 O  s          
    12     -0.229015  2 C  s          

 Vector    2  Occ=2.000000D+00  E=-8.650189D-01  Symmetry=a1
              MO Center= -1.2D-17, -1.7D-17,  5.9D-01, r^2= 1.4D+00
   Bfn.  Coefficient  Atom+Function         Bfn.  Coefficient  Atom+Function  
  ----- ------------  ---------------      ----- ------------  ---------------
    12      0.426714  2 C  s                  2      0.276813  1 O  s          
    13     -0.194667  2 C  s                  1     -0.185601  1 O  s          
    20     -0.150576  3 H  s                 22     -0.150576  4 H  s          
    24     -0.150576  5 H  s          

 Vector    3  Occ=2.000000D+00  E=-5.600005D-01  Symmetry=e
              MO Center= -1.1D-01, -1.5D-01,  5.1D-01, r^2= 1.5D+00
   Bfn.  Coefficient  Atom+Function         Bfn.  Coefficient  Atom+Function  
  ----- ------------  ---------------      ----- ------------  ---------------
    15      0.307758  2 C  py                14     -0.270019  2 C  px         
    22      0.226091  4 H  s                 24     -0.209658  5 H  s          
    23      0.168854  4 H  s                  4     -0.163489  1 O  py         
    18     -0.155956  2 C  py                25     -0.156582  5 H  s          

 Vector    4  Occ=2.000000D+00  E=-5.600005D-01  Symmetry=e
              MO Center=  1.1D-01,  1.5D-01,  5.1D-01, r^2= 1.5D+00
   Bfn.  Coefficient  Atom+Function         Bfn.  Coefficient  Atom+Function  
  ----- ------------  ---------------      ----- ------------  ---------------
    14      0.307758  2 C  px                15      0.270019  2 C  py         
    20     -0.251580  3 H  s                 21     -0.187891  3 H  s          
     3     -0.163489  1 O  px                17     -0.155956  2 C  px         

 Vector    5  Occ=2.000000D+00  E=-4.749394D-01  Symmetry=a1
              MO Center=  1.5D-18,  1.8D-18, -5.0D-01, r^2= 1.4D+00
   Bfn.  Coefficient  Atom+Function         Bfn.  Coefficient  Atom+Function  
  ----- ------------  ---------------      ----- ------------  ---------------
     5      0.451169  1 O  pz                16      0.370152  2 C  pz         
     8      0.357158  1 O  pz                 2     -0.203928  1 O  s          

 Vector    6  Occ=2.000000D+00  E=-3.392038D-01  Symmetry=e
              MO Center= -6.8D-02,  1.6D-02, -5.3D-01, r^2= 1.5D+00
   Bfn.  Coefficient  Atom+Function         Bfn.  Coefficient  Atom+Function  
  ----- ------------  ---------------      ----- ------------  ---------------
     3      0.519736  1 O  px                 6      0.454104  1 O  px         
    25      0.264423  5 H  s                  9      0.164903  1 O  px         
    24      0.163000  5 H  s          

 Vector    7  Occ=2.000000D+00  E=-3.392038D-01  Symmetry=e
              MO Center=  6.8D-02, -1.6D-02, -5.3D-01, r^2= 1.5D+00
   Bfn.  Coefficient  Atom+Function         Bfn.  Coefficient  Atom+Function  
  ----- ------------  ---------------      ----- ------------  ---------------
     4      0.519736  1 O  py                 7      0.454104  1 O  py         
    21     -0.230981  3 H  s                 23      0.227012  4 H  s          
    10      0.164903  1 O  py         

 Vector    8  Occ=0.000000D+00  E= 1.918558D-01  Symmetry=a1
              MO Center= -7.3D-20, -4.8D-17, -2.1D+00, r^2= 4.1D+00
   Bfn.  Coefficient  Atom+Function         Bfn.  Coefficient  Atom+Function  
  ----- ------------  ---------------      ----- ------------  ---------------
    11      1.420935  1 O  pz                13     -0.650965  2 C  s          
     2      0.531036  1 O  s                 19      0.324438  2 C  pz         
    21     -0.165422  3 H  s                 23     -0.165422  4 H  s          
    25     -0.165422  5 H  s          

 Vector    9  Occ=0.000000D+00  E= 2.177699D-01  Symmetry=e
              MO Center= -7.4D-02, -4.6D-02, -9.6D-01, r^2= 5.9D+00
   Bfn.  Coefficient  Atom+Function         Bfn.  Coefficient  Atom+Function  
  ----- ------------  ---------------      ----- ------------  ---------------
     9      0.965559  1 O  px                10     -0.766725  1 O  py         
    17     -0.469315  2 C  px                18      0.372671  2 C  py         
    25     -0.327088  5 H  s                 23      0.286431  4 H  s          
     6     -0.265526  1 O  px                 7      0.210847  1 O  py         

 Vector   10  Occ=0.000000D+00  E= 2.177699D-01  Symmetry=e
              MO Center=  7.4D-02,  4.6D-02, -9.6D-01, r^2= 5.9D+00
   Bfn.  Coefficient  Atom+Function         Bfn.  Coefficient  Atom+Function  
  ----- ------------  ---------------      ----- ------------  ---------------
    10      0.965559  1 O  py                 9      0.766725  1 O  px         
    18     -0.469315  2 C  py                17     -0.372671  2 C  px         
    21      0.354215  3 H  s                  7     -0.265526  1 O  py         
    23     -0.212318  4 H  s                  6     -0.210847  1 O  px         

 Vector   11  Occ=0.000000D+00  E= 2.876993D-01  Symmetry=a1
              MO Center=  4.9D-16,  1.1D-15,  8.7D-01, r^2= 3.7D+00
   Bfn.  Coefficient  Atom+Function         Bfn.  Coefficient  Atom+Function  
  ----- ------------  ---------------      ----- ------------  ---------------
    13      2.579426  2 C  s                 21     -1.521337  3 H  s          
    23     -1.521337  4 H  s                 25     -1.521337  5 H  s          
    19      1.210122  2 C  pz                 2      0.305557  1 O  s          
    12     -0.258885  2 C  s                 11      0.208615  1 O  pz         
    16     -0.202797  2 C  pz         

 Vector   12  Occ=0.000000D+00  E= 3.591807D-01  Symmetry=e
              MO Center= -2.3D-01, -2.1D-01,  8.2D-01, r^2= 3.4D+00
   Bfn.  Coefficient  Atom+Function         Bfn.  Coefficient  Atom+Function  
  ----- ------------  ---------------      ----- ------------  ---------------
    25     -1.766605  5 H  s                 23      1.718600  4 H  s          
    17     -1.148613  2 C  px                18      1.095084  2 C  py         
     6      0.281862  1 O  px                 7     -0.268726  1 O  py         
    14      0.236969  2 C  px                15     -0.225926  2 C  py         
     9     -0.208456  1 O  px                10      0.198742  1 O  py         

 Vector   13  Occ=0.000000D+00  E= 3.591807D-01  Symmetry=e
              MO Center=  2.3D-01,  2.1D-01,  8.2D-01, r^2= 3.4D+00
   Bfn.  Coefficient  Atom+Function         Bfn.  Coefficient  Atom+Function  
  ----- ------------  ---------------      ----- ------------  ---------------
    21      2.012184  3 H  s                 18     -1.148613  2 C  py         
    17     -1.095084  2 C  px                23     -1.047666  4 H  s          
    25     -0.964518  5 H  s                  7      0.281862  1 O  py         
     6      0.268726  1 O  px                15      0.236969  2 C  py         
    14      0.225926  2 C  px                10     -0.208456  1 O  py         

 Vector   14  Occ=0.000000D+00  E= 3.966544D-01  Symmetry=a1
              MO Center=  1.0D-16,  7.2D-16,  4.1D-01, r^2= 3.4D+00
   Bfn.  Coefficient  Atom+Function         Bfn.  Coefficient  Atom+Function  
  ----- ------------  ---------------      ----- ------------  ---------------
    13      1.564527  2 C  s                 19     -1.131781  2 C  pz         
     2     -1.069623  1 O  s                  8     -0.809272  1 O  pz         
    11      0.558553  1 O  pz                21     -0.547073  3 H  s          
    23     -0.547073  4 H  s                 25     -0.547073  5 H  s          
     5     -0.286953  1 O  pz                12     -0.222908  2 C  s          

 Vector   15  Occ=0.000000D+00  E= 8.090493D-01  Symmetry=e
              MO Center= -1.1D-01,  2.0D-01,  4.8D-01, r^2= 2.6D+00
   Bfn.  Coefficient  Atom+Function         Bfn.  Coefficient  Atom+Function  
  ----- ------------  ---------------      ----- ------------  ---------------
    18      1.899892  2 C  py                15      0.817669  2 C  py         
    10     -0.445079  1 O  py                22      0.437908  4 H  s          
    23      0.416888  4 H  s                 20     -0.268350  3 H  s          
    21     -0.255469  3 H  s                 17     -0.252793  2 C  px         
     7     -0.241259  1 O  py                24     -0.169559  5 H  s          

 Vector   16  Occ=0.000000D+00  E= 8.090493D-01  Symmetry=e
              MO Center=  1.1D-01, -2.0D-01,  4.8D-01, r^2= 2.6D+00
   Bfn.  Coefficient  Atom+Function         Bfn.  Coefficient  Atom+Function  
  ----- ------------  ---------------      ----- ------------  ---------------
    17      1.899892  2 C  px                14      0.817669  2 C  px         
     9     -0.445079  1 O  px                24      0.407758  5 H  s          
    25      0.388185  5 H  s                 20     -0.350721  3 H  s          
    21     -0.333886  3 H  s                 18      0.252793  2 C  py         
     6     -0.241259  1 O  px         

 Vector   17  Occ=0.000000D+00  E= 8.461132D-01  Symmetry=a1
              MO Center=  1.9D-17, -3.6D-17,  3.0D-01, r^2= 1.4D+00
   Bfn.  Coefficient  Atom+Function         Bfn.  Coefficient  Atom+Function  
  ----- ------------  ---------------      ----- ------------  ---------------
    16      1.071344  2 C  pz                19      1.039094  2 C  pz         
    13      0.500428  2 C  s                  5     -0.391842  1 O  pz         
    12     -0.326859  2 C  s                 21     -0.283908  3 H  s          
    23     -0.283908  4 H  s                 25     -0.283908  5 H  s          
     2      0.277117  1 O  s                  8     -0.253151  1 O  pz         


 center of mass
 --------------
 x =   0.00000000 y =   0.00000000 z =  -0.20771614

 moments of inertia (a.u.)
 ------------------
          69.622140902620          -0.000000000000           0.000000000000
          -0.000000000000          69.622140902620           0.000000000000
           0.000000000000           0.000000000000          10.960927446216

  Mulliken analysis of the total density
  --------------------------------------

    Atom       Charge   Shell Charges
 -----------   ------   -------------------------------------------------------
    1 O    6     7.13   0.83  1.06  2.68  2.23  0.33
    2 C    4     4.09   0.89  0.33  1.98  0.89
    3 H    1     0.93   0.56  0.37
    4 H    1     0.93   0.56  0.37
    5 H    1     0.93   0.56  0.37

       Multipole analysis of the density wrt the origin
       ------------------------------------------------

     L   x y z        total         open         nuclear
     -   - - -        -----         ----         -------
     0   0 0 0     -1.000000      0.000000     13.000000

     1   1 0 0     -0.000000      0.000000      0.000000
     1   0 1 0      0.000000      0.000000      0.000000
     1   0 0 1      2.200369      0.000000      0.572925

     2   2 0 0    -11.866081      0.000000      5.437912
     2   1 1 0     -0.000000      0.000000      0.000000
     2   1 0 1      0.000000      0.000000      0.000000
     2   0 2 0    -11.866081      0.000000      5.437912
     2   0 1 1      0.000000      0.000000      0.000000
     2   0 0 2    -15.733528      0.000000     30.675352

 Line search: 
     step= 1.00 grad=-4.4D-04 hess= 1.6D-04 energy=    -23.042954 mode=downhill
 new step= 1.40                   predicted energy=    -23.042979
[...]
   Bfn.  Coefficient  Atom+Function         Bfn.  Coefficient  Atom+Function  
  ----- ------------  ---------------      ----- ------------  ---------------
    16      1.071078  2 C  pz                19      1.037127  2 C  pz         
    13      0.496061  2 C  s                  5     -0.389483  1 O  pz         
    12     -0.320320  2 C  s                  2      0.279856  1 O  s          
    21     -0.280441  3 H  s                 23     -0.280441  4 H  s          
    25     -0.280441  5 H  s                  8     -0.247665  1 O  pz         


 center of mass
 --------------
 x =   0.00000000 y =  -0.00000000 z =  -0.20280085

 moments of inertia (a.u.)
 ------------------
          69.750841429792           0.000000000000           0.000000000000
           0.000000000000          69.750841429792           0.000000000000
           0.000000000000           0.000000000000          10.988584693116

  Mulliken analysis of the total density
  --------------------------------------

    Atom       Charge   Shell Charges
 -----------   ------   -------------------------------------------------------
    1 O    6     7.13   0.83  1.06  2.68  2.23  0.33
    2 C    4     4.09   0.89  0.33  1.98  0.89
    3 H    1     0.93   0.56  0.36
    4 H    1     0.93   0.56  0.36
    5 H    1     0.93   0.56  0.36

       Multipole analysis of the density wrt the origin
       ------------------------------------------------

     L   x y z        total         open         nuclear
     -   - - -        -----         ----         -------
     0   0 0 0     -1.000000      0.000000     13.000000

     1   1 0 0     -0.000000      0.000000      0.000000
     1   0 1 0      0.000000      0.000000     -0.000000
     1   0 0 1      2.208055      0.000000      0.617325

     2   2 0 0    -11.855192      0.000000      5.451633
     2   1 1 0     -0.000000      0.000000     -0.000000
     2   1 0 1     -0.000000      0.000000     -0.000000
     2   0 2 0    -11.855192      0.000000      5.451633
     2   0 1 1     -0.000000      0.000000     -0.000000
     2   0 0 2    -15.727363      0.000000     30.654187

 Line search: 
     step= 1.00 grad=-1.0D-08 hess= 5.0D-09 energy=    -23.042979 mode=accept  
 new step= 1.00                   predicted energy=    -23.042979
  no constraints, skipping    0.0000000000000000     
  no constraints, skipping    0.0000000000000000     
  no constraints, skipping    0.0000000000000000     

          --------
          Step   4
          --------


                         Geometry "geometry" -> "geometry"
                         ---------------------------------

 Output coordinates in angstroms (scale by  1.889725989 to convert to a.u.)

  No.       Tag          Charge          X              Y              Z
 ---- ---------------- ---------- -------------- -------------- --------------
    1 o                    8.0000    -0.00000000     0.00000000    -0.83684178
    2 c                    6.0000     0.00000000     0.00000000     0.58564379
    3 h                    1.0000     0.71335195     0.71335195     1.00171655
    4 h                    1.0000     0.26110494    -0.97445689     1.00171655
    5 h                    1.0000    -0.97445689     0.26110494     1.00171655

      Atomic Mass 
      ----------- 

      o                 15.994910
      c                 12.000000
      h                  1.007825


 Effective nuclear repulsion energy (a.u.)      33.5495013282

            Nuclear Dipole moment (a.u.) 
            ----------------------------
        X                 Y               Z
 ---------------- ---------------- ----------------
     0.0000000000    -0.0000000000    -0.3320661420

      Symmetry information
      --------------------

 Group name             C3v       
 Group number             17
 Group order               6
 No. of unique centers     3

      Symmetry unique atoms

     1    2    3


 solvent parameters
 solvname_short: h2o     
 solvname_long:  water                              
 dielec:       78.4000
 dielecinf:     1.7769

          ---------------
          -cosmo- solvent
          ---------------
 Cosmo: York-Karplus, doi: 10.1021/jp992097l
 dielectric constant -eps-     =  78.40
 screen = (eps-1)/(eps    )    =   0.98724
 surface charge correction     = lagrangian

 solvent accessible surface
 --------------------------

 ---------- ATOMIC COORDINATES (A.U.) ------------ VDWR(ANG.) --
     1   -0.00000000    0.00000000   -1.58140166     1.720
     2    0.00000000    0.00000000    1.10670630     2.000
     3    1.34803973    1.34803973    1.89296979     1.300
     4    0.49341679   -1.84145651    1.89296979     1.300
     5   -1.84145651    0.49341679    1.89296979     1.300
 number of segments per atom =         32
 number of   points per atom =         32
 atom (   nspa,  nppa )
 ----------------------
    1 (     24,     0 )       0
    2 (     25,     0 )       0
    3 (     15,     0 )       0
    4 (     15,     0 )       0
    5 (     15,     0 )       0
 number of -cosmo- surface points =       94
 molecular surface =     63.730 angstrom**2
 molecular volume  =     36.092 angstrom**3
 G(cav/disp)       =      1.179 kcal/mol
 -lineq- algorithm             =   0
 -bem- low  level              =   2
 -bem- from -octahedral-
 gaussian surface charge width =   4.50000
 degree of switching           =   1.00000
 switching function tolerance  =   0.00010
 atomic radii = 
 --------------
    1  6.000  1.720
    2  4.000  2.000
    3  1.000  1.300
    4  1.000  1.300
    5  1.000  1.300
 ...... end of -cosmo- initialization ......


                                 NWChem SCF Module
                                 -----------------



  ao basis        = "ao basis"
  functions       =    25
  atoms           =     5
  closed shells   =     7
  open shells     =     0
  charge          =  -1.00
  wavefunction    = RHF 
  input vectors   = ./h3co_dat.movecs
  output vectors  = ./h3co_dat.movecs
  use symmetry    = T
  symmetry adapt  = T


 Summary of "ao basis" -> "ao basis" (cartesian)
 ------------------------------------------------------------------------------
       Tag                 Description            Shells   Functions and Types
 ---------------- ------------------------------  ------  ---------------------
 h                           6-31g*                  2        2   2s
 c                     Stuttgart RLC ECP             4        8   2s2p
 o                     Stuttgart RLC ECP             5       11   2s3p


      Symmetry analysis of basis
      --------------------------

        a1         11
        a2          0
        e          14


  The SCF is already converged 

         Total SCF energy =    -23.042979480824

                              NWChem Gradients Module
                              -----------------------



  wavefunction    =   RHF     

  Using symmetry


                         RHF ENERGY GRADIENTS

    atom               coordinates                        gradient
                 x          y          z           x          y          z
   1 o      -0.000000   0.000000  -1.581402    0.000000   0.000000  -0.000001
   2 c       0.000000   0.000000   1.106706    0.000000  -0.000000   0.000001
   3 h       1.348040   1.348040   1.892970   -0.000001  -0.000001  -0.000000
   4 h       0.493417  -1.841457   1.892970   -0.000000   0.000002  -0.000000
   5 h      -1.841457   0.493417   1.892970    0.000002  -0.000000  -0.000000

                 ----------------------------------------
                 |  Time  |  1-e(secs)   |  2-e(secs)   |
                 ----------------------------------------
                 |  CPU   |       0.01   |       0.10   |
                 ----------------------------------------
                 |  WALL  |       0.01   |       0.10   |
                 ----------------------------------------
  no constraints, skipping    0.0000000000000000     

  Step       Energy      Delta E   Gmax     Grms     Xrms     Xmax   Walltime
  ---- ---------------- -------- -------- -------- -------- -------- --------
@    4     -23.04297948 -5.5D-09  0.00000  0.00000  0.00004  0.00008     21.6
                                     ok       ok       ok       ok  



                                Z-matrix (autoz)
                                -------- 

 Units are Angstrom for bonds and degrees for angles

      Type          Name      I     J     K     L     M      Value     Gradient
      ----------- --------  ----- ----- ----- ----- ----- ---------- ----------
    1 Stretch                  1     2                       1.42249    0.00000
    2 Stretch                  2     3                       1.09126   -0.00000
    3 Stretch                  2     4                       1.09126   -0.00000
    4 Stretch                  2     5                       1.09126   -0.00000
    5 Bend                     1     2     3               112.41273    0.00000
    6 Bend                     1     2     4               112.41273    0.00000
    7 Bend                     1     2     5               112.41273    0.00000
    8 Bend                     3     2     4               106.37622   -0.00000
    9 Bend                     3     2     5               106.37622   -0.00000
   10 Bend                     4     2     5               106.37622   -0.00000


      ----------------------
      Optimization converged
      ----------------------


  Step       Energy      Delta E   Gmax     Grms     Xrms     Xmax   Walltime
  ---- ---------------- -------- -------- -------- -------- -------- --------
@    4     -23.04297948 -5.5D-09  0.00000  0.00000  0.00004  0.00008     21.6
                                     ok       ok       ok       ok  



                                Z-matrix (autoz)
                                -------- 

 Units are Angstrom for bonds and degrees for angles

      Type          Name      I     J     K     L     M      Value     Gradient
      ----------- --------  ----- ----- ----- ----- ----- ---------- ----------
    1 Stretch                  1     2                       1.42249    0.00000
    2 Stretch                  2     3                       1.09126   -0.00000
    3 Stretch                  2     4                       1.09126   -0.00000
    4 Stretch                  2     5                       1.09126   -0.00000
    5 Bend                     1     2     3               112.41273    0.00000
    6 Bend                     1     2     4               112.41273    0.00000
    7 Bend                     1     2     5               112.41273    0.00000
    8 Bend                     3     2     4               106.37622   -0.00000
    9 Bend                     3     2     5               106.37622   -0.00000
   10 Bend                     4     2     5               106.37622   -0.00000



                         Geometry "geometry" -> "geometry"
                         ---------------------------------

 Output coordinates in angstroms (scale by  1.889725989 to convert to a.u.)

  No.       Tag          Charge          X              Y              Z
 ---- ---------------- ---------- -------------- -------------- --------------
    1 o                    8.0000    -0.00000000     0.00000000    -0.83684178
    2 c                    6.0000     0.00000000     0.00000000     0.58564379
    3 h                    1.0000     0.71335195     0.71335195     1.00171655
    4 h                    1.0000     0.26110494    -0.97445689     1.00171655
    5 h                    1.0000    -0.97445689     0.26110494     1.00171655

      Atomic Mass 
      ----------- 

      o                 15.994910
      c                 12.000000
      h                  1.007825


 Effective nuclear repulsion energy (a.u.)      33.5495013282

            Nuclear Dipole moment (a.u.) 
            ----------------------------
        X                 Y               Z
 ---------------- ---------------- ----------------
     0.0000000000    -0.0000000000    -0.3320661420

      Symmetry information
      --------------------

 Group name             C3v       
 Group number             17
 Group order               6
 No. of unique centers     3

      Symmetry unique atoms

     1    2    3


                Final and change from initial internal coordinates
                --------------------------------------------------



                                Z-matrix (autoz)
                                -------- 

 Units are Angstrom for bonds and degrees for angles

      Type          Name      I     J     K     L     M      Value       Change
      ----------- --------  ----- ----- ----- ----- ----- ---------- ----------
    1 Stretch                  1     2                       1.42249    0.06907
    2 Stretch                  2     3                       1.09126   -0.00970
    3 Stretch                  2     4                       1.09126   -0.00970
    4 Stretch                  2     5                       1.09126   -0.00970
    5 Bend                     1     2     3               112.41273   -0.90525
    6 Bend                     1     2     4               112.41273   -0.90525
    7 Bend                     1     2     5               112.41273   -0.90525
    8 Bend                     3     2     4               106.37622    1.01083
    9 Bend                     3     2     5               106.37622    1.01083
   10 Bend                     4     2     5               106.37622    1.01083

 ==============================================================================
                                internuclear distances
 ------------------------------------------------------------------------------
       center one      |      center two      | atomic units |  angstroms
 ------------------------------------------------------------------------------
    2 c                |   1 o                |     2.68811  |     1.42249
    3 h                |   2 c                |     2.06219  |     1.09126
    4 h                |   2 c                |     2.06219  |     1.09126
    5 h                |   2 c                |     2.06219  |     1.09126
 ------------------------------------------------------------------------------
                         number of included internuclear distances:          4
 ==============================================================================



 ==============================================================================
                                 internuclear angles
 ------------------------------------------------------------------------------
        center 1       |       center 2       |       center 3       |  degrees
 ------------------------------------------------------------------------------
    1 o                |   2 c                |   3 h                |   112.41
    1 o                |   2 c                |   4 h                |   112.41
    1 o                |   2 c                |   5 h                |   112.41
    3 h                |   2 c                |   4 h                |   106.38
    3 h                |   2 c                |   5 h                |   106.38
    4 h                |   2 c                |   5 h                |   106.38
 ------------------------------------------------------------------------------
                            number of included internuclear angles:          6
 ==============================================================================




 Task  times  cpu:       21.5s     wall:       21.5s


                                NWChem Input Module
                                -------------------


 Summary of allocated global arrays
-----------------------------------
  No active global arrays


MA_summarize_allocated_blocks: starting scan ...
MA_summarize_allocated_blocks: scan completed: 0 heap blocks, 0 stack blocks
MA usage statistics:

	allocation statistics:
					      heap	     stack
					      ----	     -----
	current number of blocks	         0	         0
	maximum number of blocks	        43	        32
	current total bytes		         0	         0
	maximum total bytes		    202856	  22509672
	maximum total K-bytes		       203	     22510
	maximum total M-bytes		         1	        23


                                     CITATION
                                     --------
                Please cite the following reference when publishing
                           results obtained with NWChem:

          E. Apra, E. J. Bylaska, W. A. de Jong, N. Govind, K. Kowalski,
       T. P. Straatsma, M. Valiev, H. J. J. van Dam, Y. Alexeev, J. Anchell,
       V. Anisimov, F. W. Aquino, R. Atta-Fynn, J. Autschbach, N. P. Bauman,
     J. C. Becca, D. E. Bernholdt, K. Bhaskaran-Nair, S. Bogatko, P. Borowski,
         J. Boschen, J. Brabec, A. Bruner, E. Cauet, Y. Chen, G. N. Chuev,
      C. J. Cramer, J. Daily, M. J. O. Deegan, T. H. Dunning Jr., M. Dupuis,
   K. G. Dyall, G. I. Fann, S. A. Fischer, A. Fonari, H. Fruchtl, L. Gagliardi,
      J. Garza, N. Gawande, S. Ghosh, K. Glaesemann, A. W. Gotz, J. Hammond,
       V. Helms, E. D. Hermes, K. Hirao, S. Hirata, M. Jacquelin, L. Jensen,
   B. G. Johnson, H. Jonsson, R. A. Kendall, M. Klemm, R. Kobayashi, V. Konkov,
      S. Krishnamoorthy, M. Krishnan, Z. Lin, R. D. Lins, R. J. Littlefield,
      A. J. Logsdail, K. Lopata, W. Ma, A. V. Marenich, J. Martin del Campo,
   D. Mejia-Rodriguez, J. E. Moore, J. M. Mullin, T. Nakajima, D. R. Nascimento,
    J. A. Nichols, P. J. Nichols, J. Nieplocha, A. Otero-de-la-Roza, B. Palmer,
    A. Panyala, T. Pirojsirikul, B. Peng, R. Peverati, J. Pittner, L. Pollack,
   R. M. Richard, P. Sadayappan, G. C. Schatz, W. A. Shelton, D. W. Silverstein,
   D. M. A. Smith, T. A. Soares, D. Song, M. Swart, H. L. Taylor, G. S. Thomas,
            V. Tipparaju, D. G. Truhlar, K. Tsemekhman, T. Van Voorhis,
      A. Vazquez-Mayagoitia, P. Verma, O. Villa, A. Vishnu, K. D. Vogiatzis,
        D. Wang, J. H. Weare, M. J. Williamson, T. L. Windus, K. Wolinski,
        A. T. Wong, Q. Wu, C. Yang, Q. Yu, M. Zacharias, Z. Zhang, Y. Zhao,
                                and R. J. Harrison
                        "NWChem: Past, present, and future
                         J. Chem. Phys. 152, 184102 (2020)
                               doi:10.1063/5.0004997

                                      AUTHORS
                                      -------
     E. Apra, E. J. Bylaska, N. Govind, K. Kowalski, M. Valiev, W. A. de Jong,
      T. P. Straatsma, H. J. J. van Dam, D. Wang, T. L. Windus, N. P. Bauman,
       A. Panyala, J. Hammond, J. Autschbach, K. Bhaskaran-Nair, J. Brabec,
    K. Lopata, S. A. Fischer, S. Krishnamoorthy, M. Jacquelin, W. Ma, M. Klemm,
       O. Villa, Y. Chen, V. Anisimov, F. Aquino, S. Hirata, M. T. Hackler,
           Eric Hermes, L. Jensen, J. E. Moore, J. C. Becca, V. Konjkov,
            D. Mejia-Rodriguez, T. Risthaus, M. Malagoli, A. Marenich,
   A. Otero-de-la-Roza, J. Mullin, P. Nichols, R. Peverati, J. Pittner, Y. Zhao,
        P.-D. Fan, A. Fonari, M. J. Williamson, R. J. Harrison, J. R. Rehr,
      M. Dupuis, D. Silverstein, D. M. A. Smith, J. Nieplocha, V. Tipparaju,
      M. Krishnan, B. E. Van Kuiken, A. Vazquez-Mayagoitia, M. Swart, Q. Wu,
   T. Van Voorhis, A. A. Auer, M. Nooijen, L. D. Crosby, E. Brown, G. Cisneros,
     G. I. Fann, H. Fruchtl, J. Garza, K. Hirao, R. A. Kendall, J. A. Nichols,
       K. Tsemekhman, K. Wolinski, J. Anchell, D. E. Bernholdt, P. Borowski,
       T. Clark, D. Clerc, H. Dachsel, M. J. O. Deegan, K. Dyall, D. Elwood,
      E. Glendening, M. Gutowski, A. C. Hess, J. Jaffe, B. G. Johnson, J. Ju,
        R. Kobayashi, R. Kutteh, Z. Lin, R. Littlefield, X. Long, B. Meng,
      T. Nakajima, S. Niu, L. Pollack, M. Rosing, K. Glaesemann, G. Sandrone,
      M. Stave, H. Taylor, G. Thomas, J. H. van Lenthe, A. T. Wong, Z. Zhang.

 Total times  cpu:       21.6s     wall:       21.6s
