All connections between all procs tested: SUCCESS
 argument  1 = cosmo_h3co_ecp.nw



============================== echo of input deck ==============================
echo

start h3co_dat

geometry
    o      0.00000000     0.00000000     0.27851507
    c      0.00000000     0.00000000     1.63192657
    h      0.26167571    -0.97658705     2.06772417
    h     -0.97658705     0.26167571     2.06772417
    h      0.71491134     0.71491134     2.06772417
end
charge -1

basis
  h library 6-31g*
  c library "Stuttgart RLC ECP"
  o library "Stuttgart RLC ECP"
end

ecp
  c library "Stuttgart RLC ECP"
  o library "Stuttgart RLC ECP"
end

cosmo
  minbem 2
  maxbem 4
  # ifscrn 1: do not correct the total surface charge
  #           this improves the convergence of the geometry
  #           optimization significantly
  #ifscrn 1
end

task scf optimize
================================================================================


                                         
                                         


              Northwest Computational Chemistry Package (NWChem) 6.3
              ------------------------------------------------------


                    Environmental Molecular Sciences Laboratory
                       Pacific Northwest National Laboratory
                                Richland, WA 99352

                              Copyright (c) 1994-2013
                       Pacific Northwest National Laboratory
                            Battelle Memorial Institute

             NWChem is an open-source computational chemistry package
                        distributed under the terms of the
                      Educational Community License (ECL) 2.0
             A copy of the license is included with this distribution
                              in the LICENSE.TXT file

                                  ACKNOWLEDGMENT
                                  --------------

            This software and its documentation were developed at the
            EMSL at Pacific Northwest National Laboratory, a multiprogram
            national laboratory, operated for the U.S. Department of Energy
            by Battelle under Contract Number DE-AC05-76RL01830. Support
            for this work was provided by the Department of Energy Office
            of Biological and Environmental Research, Office of Basic
            Energy Sciences, and the Office of Advanced Scientific Computing.


           Job information
           ---------------

    hostname        = arcen
    program         = /home/d3y133/nwchem-dev/nwchem-dev-2013-10-16/QA/../bin/LINUX64/nwchem
    date            = Wed Oct 23 14:04:12 2013

    compiled        = Wed_Oct_23_13:57:40_2013
    source          = /home/d3y133/nwchem-dev/nwchem-dev-2013-10-16
    nwchem branch   = Development
    nwchem revision = 24691
    ga revision     = 10432
    input           = cosmo_h3co_ecp.nw
    prefix          = h3co_dat.
    data base       = /home/d3y133/nwchem-dev/nwchem-dev-2013-10-16/QA/scratchdir/h3co_dat.db
    status          = startup
    nproc           =        4
    time left       =     -1s



           Memory information
           ------------------

    heap     =   13107201 doubles =    100.0 Mbytes
    stack    =   13107201 doubles =    100.0 Mbytes
    global   =   26214400 doubles =    200.0 Mbytes (distinct from heap & stack)
    total    =   52428802 doubles =    400.0 Mbytes
    verify   = yes
    hardfail = no 


           Directory information
           ---------------------

  0 permanent = /home/d3y133/nwchem-dev/nwchem-dev-2013-10-16/QA/scratchdir
  0 scratch   = /home/d3y133/nwchem-dev/nwchem-dev-2013-10-16/QA/scratchdir




                                NWChem Input Module
                                -------------------



 Scaling coordinates for geometry "geometry" by  1.889725989
 (inverse scale =  0.529177249)

 C3V symmetry detected

          ------
          auto-z
          ------
  Looking for out-of-plane bends


                             Geometry "geometry" -> ""
                             -------------------------

 Output coordinates in angstroms (scale by  1.889725989 to convert to a.u.)

  No.       Tag          Charge          X              Y              Z
 ---- ---------------- ---------- -------------- -------------- --------------
    1 o                    8.0000     0.00000000     0.00000000    -0.79341743
    2 c                    6.0000     0.00000000     0.00000000     0.55999407
    3 h                    1.0000     0.71491134     0.71491134     0.99579167
    4 h                    1.0000     0.26167571    -0.97658705     0.99579167
    5 h                    1.0000    -0.97658705     0.26167571     0.99579167

      Atomic Mass 
      ----------- 

      o                 15.994910
      c                 12.000000
      h                  1.007825


 Effective nuclear repulsion energy (a.u.)      34.5058725513

            Nuclear Dipole moment (a.u.) 
            ----------------------------
        X                 Y               Z
 ---------------- ---------------- ----------------
     0.0000000000     0.0000000000     0.0000000000

      Symmetry information
      --------------------

 Group name             C3v       
 Group number             17
 Group order               6
 No. of unique centers     3

      Symmetry unique atoms

     1    2    3



                                Z-matrix (autoz)
                                -------- 

 Units are Angstrom for bonds and degrees for angles

      Type          Name      I     J     K     L     M      Value
      ----------- --------  ----- ----- ----- ----- ----- ----------
    1 Stretch                  1     2                       1.35341
    2 Stretch                  2     3                       1.10096
    3 Stretch                  2     4                       1.10096
    4 Stretch                  2     5                       1.10096
    5 Bend                     1     2     3               113.31798
    6 Bend                     1     2     4               113.31798
    7 Bend                     1     2     5               113.31798
    8 Bend                     3     2     4               105.36538
    9 Bend                     3     2     5               105.36538
   10 Bend                     4     2     5               105.36538


            XYZ format geometry
            -------------------
     5
 geometry
 o                     0.00000000     0.00000000    -0.79341743
 c                     0.00000000     0.00000000     0.55999407
 h                     0.71491134     0.71491134     0.99579167
 h                     0.26167571    -0.97658705     0.99579167
 h                    -0.97658705     0.26167571     0.99579167

 ==============================================================================
                                internuclear distances
 ------------------------------------------------------------------------------
       center one      |      center two      | atomic units |  angstroms
 ------------------------------------------------------------------------------
    2 c                |   1 o                |     2.55758  |     1.35341
    3 h                |   2 c                |     2.08052  |     1.10096
    4 h                |   2 c                |     2.08052  |     1.10096
    5 h                |   2 c                |     2.08052  |     1.10096
 ------------------------------------------------------------------------------
                         number of included internuclear distances:          4
 ==============================================================================



 ==============================================================================
                                 internuclear angles
 ------------------------------------------------------------------------------
        center 1       |       center 2       |       center 3       |  degrees
 ------------------------------------------------------------------------------
    1 o                |   2 c                |   3 h                |   113.32
    1 o                |   2 c                |   4 h                |   113.32
    1 o                |   2 c                |   5 h                |   113.32
    3 h                |   2 c                |   4 h                |   105.37
    3 h                |   2 c                |   5 h                |   105.37
    4 h                |   2 c                |   5 h                |   105.37
 ------------------------------------------------------------------------------
                            number of included internuclear angles:          6
 ==============================================================================



  library name resolved from: environment
  library file name is: </home/d3y133/nwchem-dev/nwchem-dev-2013-10-16/QA/../src/basis/libraries/>
  
                      Basis "ao basis" -> "" (cartesian)
                      -----
  h (Hydrogen)
  ------------
            Exponent  Coefficients 
       -------------- ---------------------------------------------------------
  1 S  1.87311370E+01  0.033495
  1 S  2.82539370E+00  0.234727
  1 S  6.40121700E-01  0.813757

  2 S  1.61277800E-01  1.000000

  c (Carbon)
  ----------
            Exponent  Coefficients 
       -------------- ---------------------------------------------------------
  1 S  2.26310100E+00  0.496548
  1 S  1.77318600E+00 -0.422391
  1 S  4.08619000E-01 -0.599356

  2 S  1.39175000E-01  1.000000

  3 P  8.38302500E+00 -0.038544
  3 P  1.99313200E+00 -0.203185
  3 P  5.59543000E-01 -0.498176

  4 P  1.56126000E-01  1.000000

  o (Oxygen)
  ----------
            Exponent  Coefficients 
       -------------- ---------------------------------------------------------
  1 S  4.71055180E+01 -0.014408
  1 S  5.91134600E+00  0.129568
  1 S  9.76483000E-01 -0.563118

  2 S  2.96070000E-01  1.000000

  3 P  1.66922190E+01  0.044856
  3 P  3.90070200E+00  0.222613
  3 P  1.07825300E+00  0.500188

  4 P  2.84189000E-01  1.000000

  5 P  7.02000000E-02  1.000000



 Summary of "ao basis" -> "" (cartesian)
 ------------------------------------------------------------------------------
       Tag                 Description            Shells   Functions and Types
 ---------------- ------------------------------  ------  ---------------------
 h                           6-31g*                  2        2   2s
 c                     Stuttgart RLC ECP             4        8   2s2p
 o                     Stuttgart RLC ECP             5       11   2s3p


  library name resolved from: environment
  library file name is: </home/d3y133/nwchem-dev/nwchem-dev-2013-10-16/QA/../src/basis/libraries/>
  

 **** WARNING Zero Coefficient **** on atom "               c"
 angular momentum value:-1  standard basis set name: "Stuttgart RLC ECP"
 input line that generated warning:
  1497: 2      1.000000000            0.000000000
  
 Local ECP potential is zero and ignored
  

 **** WARNING Zero Coefficient **** on atom "               o"
 angular momentum value:-1  standard basis set name: "Stuttgart RLC ECP"
 input line that generated warning:
  1519: 2      1.000000000            0.000000000
  
 Local ECP potential is zero and ignored
  
                 ECP       "ecp basis" -> "" (cartesian)
                -----
  c (Carbon) Replaces     2 electrons
  -----------------------------------
          R-exponent    Exponent     Coefficients 
         ------------ ---------------------------------------------------------
  1 U-s      2.00        6.401052      33.121638

  2 U-p      2.00        7.307747      -1.986257

  3 U-d      2.00        5.961796      -9.454318

  o (Oxygen) Replaces     2 electrons
  -----------------------------------
          R-exponent    Exponent     Coefficients 
         ------------ ---------------------------------------------------------
  1 U-s      2.00       10.445670      50.771069

  2 U-p      2.00       18.045174      -4.903551

  3 U-d      2.00        8.164798      -3.312124

 Keyword MAXBEM is obsolete and ignored (see York, Karplus, doi:10.1021/jp992097l)


                           NWChem Geometry Optimization
                           ----------------------------


 maximum gradient threshold         (gmax) =   0.000450
 rms gradient threshold             (grms) =   0.000300
 maximum cartesian step threshold   (xmax) =   0.001800
 rms cartesian step threshold       (xrms) =   0.001200
 fixed trust radius                (trust) =   0.300000
 maximum step size to saddle      (sadstp) =   0.100000
 energy precision                  (eprec) =   1.0D-07
 maximum number of steps          (nptopt) =   20
 initial hessian option           (inhess) =    0
 line search option               (linopt) =    1
 hessian update option            (modupd) =    1
 saddle point option              (modsad) =    0
 initial eigen-mode to follow     (moddir) =    0
 initial variable to follow       (vardir) =    0
 follow first negative mode     (firstneg) =    T
 apply conjugacy                    (opcg) =    F
 source of zmatrix                         =   autoz   


          -------------------
          Energy Minimization
          -------------------


 Names of Z-matrix variables 
    1              2              3              4              5         
    6              7              8              9             10         

 Variables with the same non-blank name are constrained to be equal


 Using diagonal initial Hessian 
 Scaling for Hessian diagonals: bonds = 1.00  angles = 0.25  torsions = 0.10

          --------
          Step   0
          --------


                         Geometry "geometry" -> "geometry"
                         ---------------------------------

 Output coordinates in angstroms (scale by  1.889725989 to convert to a.u.)

  No.       Tag          Charge          X              Y              Z
 ---- ---------------- ---------- -------------- -------------- --------------
    1 o                    8.0000     0.00000000     0.00000000    -0.79341743
    2 c                    6.0000     0.00000000     0.00000000     0.55999407
    3 h                    1.0000     0.71491134     0.71491134     0.99579167
    4 h                    1.0000     0.26167571    -0.97658705     0.99579167
    5 h                    1.0000    -0.97658705     0.26167571     0.99579167

      Atomic Mass 
      ----------- 

      o                 15.994910
      c                 12.000000
      h                  1.007825


 Effective nuclear repulsion energy (a.u.)      34.5058725513

            Nuclear Dipole moment (a.u.) 
            ----------------------------
        X                 Y               Z
 ---------------- ---------------- ----------------
     0.0000000000     0.0000000000     0.0000000000

      Symmetry information
      --------------------

 Group name             C3v       
 Group number             17
 Group order               6
 No. of unique centers     3

      Symmetry unique atoms

     1    2    3


          ---------------
          -cosmo- solvent
          ---------------
 dielectric constant -eps-     =  78.40
 charge screening approach     =   2
 screen = (eps-1)/(eps    )    =   0.98724
 -lineq- algorithm             =   1
 -bem- low  level              =   2
 -bem- high level              =   4
 -bem- from -octahedral-
 solvent radius (ang.)         =   0.000
 gaussian surface charge width =   0.98000
 degree of switching           =   1.00000
 switching function tolerance  =   0.00010
 atomic radii = 
 --------------
    1  6.000  1.720
    2  4.000  2.000
    3  1.000  1.300
    4  1.000  1.300
    5  1.000  1.300

 solvent accessible surface
 --------------------------

 ---------- ATOMIC COORDINATES (A.U.) ------------ VDWR(ANG.) --
     1    0.00000000    0.00000000   -1.49934154     1.720
     2    0.00000000    0.00000000    1.05823535     2.000
     3    1.35098654    1.35098654    1.88177340     1.300
     4    0.49449539   -1.84548193    1.88177340     1.300
     5   -1.84548193    0.49449539    1.88177340     1.300
 number of segments per atom =         32
 number of   points per atom =         32
 atom (   nspa,  nppa )
 ----------------------
    1 (     24,     0 )       0
    2 (     25,     0 )       0
    3 (     15,     0 )       0
    4 (     15,     0 )       0
    5 (     15,     0 )       0
 number of -cosmo- surface points =       94
 molecular surface =     63.480 angstrom**2
 molecular volume  =     35.859 angstrom**3
 G(cav/disp)       =      1.177 kcal/mol
 ...... end of -cosmo- initialization ......


                                 NWChem SCF Module
                                 -----------------



  ao basis        = "ao basis"
  functions       =    25
  atoms           =     5
  closed shells   =     7
  open shells     =     0
  charge          =  -1.00
  wavefunction    = RHF 
  input vectors   = atomic
  output vectors  = /home/d3y133/nwchem-dev/nwchem-dev-2013-10-16/QA/scratchdir/h3co_dat.movecs
  use symmetry    = T
  symmetry adapt  = T


 Summary of "ao basis" -> "ao basis" (cartesian)
 ------------------------------------------------------------------------------
       Tag                 Description            Shells   Functions and Types
 ---------------- ------------------------------  ------  ---------------------
 h                           6-31g*                  2        2   2s
 c                     Stuttgart RLC ECP             4        8   2s2p
 o                     Stuttgart RLC ECP             5       11   2s3p


      Symmetry analysis of basis
      --------------------------

        a1         11
        a2          0
        e          14


 Forming initial guess at       1.1s


      Superposition of Atomic Density Guess
      -------------------------------------

 Sum of atomic energies:         -24.77825633

 Renormalizing density from      13.00 to     14

      Non-variational initial energy
      ------------------------------

 Total energy =     -23.349498
 1-e energy   =     -82.297500
 2-e energy   =      38.254875
 HOMO         =       0.074599
 LUMO         =       0.383067


      Symmetry analysis of molecular orbitals - initial
      -------------------------------------------------

  Numbering of irreducible representations: 

     1 a1          2 a2          3 e       

  Orbital symmetries:

     1 a1          2 a1          3 e           4 e           5 a1      
     6 e           7 e           8 a1          9 e          10 e       
    11 a1         12 e          13 e          14 a1         15 e       
    16 e          17 a1      


 Starting SCF solution at       1.1s



 ----------------------------------------------
         Quadratically convergent ROHF

 Convergence threshold     :          1.000E-04
 Maximum no. of iterations :           30
 Final Fock-matrix accuracy:          1.000E-07
 ----------------------------------------------

     COSMO gas phase

 #quartets = 2.892D+03 #integrals = 1.727D+04 #direct =  0.0% #cached =100.0%


 Integral file          = /home/d3y133/nwchem-dev/nwchem-dev-2013-10-16/QA/scratchdir/h3co_dat.aoints.0
 Record size in doubles =  65536        No. of integs per rec  =  43688
 Max. records in memory =      2        Max. records in file   =   5743
 No. of bits per label  =      8        No. of bits per value  =     64


File balance: exchanges=     0  moved=     0  time=   0.0


              iter       energy          gnorm     gmax       time
             ----- ------------------- --------- --------- --------
                 1      -22.8521756376  8.22D-01  4.41D-01      0.1
                 2      -22.9031813836  1.71D-01  8.25D-02      0.1
                 3      -22.9057263968  9.64D-03  3.15D-03      0.1
                 4      -22.9057432440  4.79D-05  2.23D-05      0.1
     COSMO solvation phase

              iter       energy          gnorm     gmax       time
             ----- ------------------- --------- --------- --------
                 1      -23.0355145686  1.58D-01  7.25D-02      2.3
                 2      -23.0402589520  2.99D-02  1.50D-02      3.3
                 3      -23.0404538110  5.71D-03  2.81D-03      4.2
                 4      -23.0404608220  1.06D-03  4.98D-04      5.1
                 5      -23.0404610625  1.98D-04  9.35D-05      5.8
                 6      -23.0404610707  3.69D-05  1.79D-05      6.3
 
                  COSMO solvation results
                  -----------------------
 
                 gas phase energy =       -22.9057432440
                 sol phase energy =       -23.0404610707
 (electrostatic) solvation energy =         0.1347178267 (   84.54 kcal/mol)


       Final RHF  results 
       ------------------ 

         Total SCF energy =    -23.040461070721
      One-electron energy =    -85.298712443093
      Two-electron energy =     38.272738493558
 Nuclear repulsion energy =     20.693127128192

        Time for solution =      6.3s



       Symmetry analysis of molecular orbitals - final
       -----------------------------------------------

  Numbering of irreducible representations: 

     1 a1          2 a2          3 e       

  Orbital symmetries:

     1 a1          2 a1          3 e           4 e           5 a1      
     6 e           7 e           8 a1          9 e          10 e       
    11 a1         12 e          13 e          14 a1         15 e       
    16 e          17 a1      

             Final eigenvalues
             -----------------

              1      
    1   -1.2338
    2   -0.8542
    3   -0.5653
    4   -0.5653
    5   -0.4924
    6   -0.3328
    7   -0.3328
    8    0.1932
    9    0.2146
   10    0.2146
   11    0.2862
   12    0.3624
   13    0.3624
   14    0.4082
   15    0.8180
   16    0.8180
   17    0.9037

                       ROHF Final Molecular Orbital Analysis
                       -------------------------------------

 Vector    1  Occ=2.000000D+00  E=-1.233835D+00  Symmetry=a1
              MO Center= -4.3D-19, -1.2D-18, -4.4D-01, r^2= 6.3D-01
   Bfn.  Coefficient  Atom+Function         Bfn.  Coefficient  Atom+Function  
  ----- ------------  ---------------      ----- ------------  ---------------
     2      0.439346  1 O  s                  1     -0.391982  1 O  s          
    12     -0.244056  2 C  s          

 Vector    2  Occ=2.000000D+00  E=-8.542110D-01  Symmetry=a1
              MO Center=  8.7D-18, -4.8D-18,  5.9D-01, r^2= 1.4D+00
   Bfn.  Coefficient  Atom+Function         Bfn.  Coefficient  Atom+Function  
  ----- ------------  ---------------      ----- ------------  ---------------
    12      0.419786  2 C  s                  2      0.286025  1 O  s          
    13     -0.197328  2 C  s                  1     -0.187924  1 O  s          
    16      0.152492  2 C  pz                20     -0.150232  3 H  s          
    22     -0.150232  4 H  s                 24     -0.150232  5 H  s          

 Vector    3  Occ=2.000000D+00  E=-5.652517D-01  Symmetry=e
              MO Center= -1.1D-01, -1.3D-01,  4.5D-01, r^2= 1.5D+00
   Bfn.  Coefficient  Atom+Function         Bfn.  Coefficient  Atom+Function  
  ----- ------------  ---------------      ----- ------------  ---------------
    15     -0.296400  2 C  py                14      0.274033  2 C  px         
    22     -0.213130  4 H  s                 24      0.203693  5 H  s          
     4      0.178462  1 O  py                 3     -0.164995  1 O  px         
    23     -0.158041  4 H  s                 18      0.150952  2 C  py         
    25      0.151044  5 H  s          

 Vector    4  Occ=2.000000D+00  E=-5.652517D-01  Symmetry=e
              MO Center=  1.1D-01,  1.3D-01,  4.5D-01, r^2= 1.5D+00
   Bfn.  Coefficient  Atom+Function         Bfn.  Coefficient  Atom+Function  
  ----- ------------  ---------------      ----- ------------  ---------------
    14      0.296400  2 C  px                15      0.274033  2 C  py         
    20     -0.240653  3 H  s                  3     -0.178462  1 O  px         
    21     -0.178451  3 H  s                  4     -0.164995  1 O  py         
    17     -0.150952  2 C  px         

 Vector    5  Occ=2.000000D+00  E=-4.924242D-01  Symmetry=a1
              MO Center= -5.2D-18, -6.1D-18, -5.1D-01, r^2= 1.3D+00
   Bfn.  Coefficient  Atom+Function         Bfn.  Coefficient  Atom+Function  
  ----- ------------  ---------------      ----- ------------  ---------------
     5      0.458139  1 O  pz                16      0.372324  2 C  pz         
     8      0.351408  1 O  pz                 2     -0.214350  1 O  s          

 Vector    6  Occ=2.000000D+00  E=-3.328222D-01  Symmetry=e
              MO Center= -8.9D-02,  1.5D-03, -4.2D-01, r^2= 1.6D+00
   Bfn.  Coefficient  Atom+Function         Bfn.  Coefficient  Atom+Function  
  ----- ------------  ---------------      ----- ------------  ---------------
     3      0.490872  1 O  px                 6      0.436790  1 O  px         
    25      0.292705  5 H  s                  4     -0.198435  1 O  py         
    23     -0.177527  4 H  s                 24      0.178130  5 H  s          
     7     -0.176572  1 O  py                 9      0.153551  1 O  px         
    14      0.151573  2 C  px         

 Vector    7  Occ=2.000000D+00  E=-3.328222D-01  Symmetry=e
              MO Center=  8.9D-02, -1.5D-03, -4.2D-01, r^2= 1.6D+00
   Bfn.  Coefficient  Atom+Function         Bfn.  Coefficient  Atom+Function  
  ----- ------------  ---------------      ----- ------------  ---------------
     4      0.490872  1 O  py                 7      0.436790  1 O  py         
    21     -0.271488  3 H  s                 23      0.235491  4 H  s          
     3      0.198435  1 O  px                 6      0.176572  1 O  px         
    20     -0.165218  3 H  s                 10      0.153551  1 O  py         
    15      0.151573  2 C  py         

 Vector    8  Occ=0.000000D+00  E= 1.932474D-01  Symmetry=a1
              MO Center=  3.5D-18,  2.3D-17, -2.1D+00, r^2= 4.0D+00
   Bfn.  Coefficient  Atom+Function         Bfn.  Coefficient  Atom+Function  
  ----- ------------  ---------------      ----- ------------  ---------------
    11      1.433340  1 O  pz                13     -0.620103  2 C  s          
     2      0.520505  1 O  s                 19      0.268902  2 C  pz         
    21     -0.176674  3 H  s                 23     -0.176674  4 H  s          
    25     -0.176674  5 H  s                  8     -0.167239  1 O  pz         

 Vector    9  Occ=0.000000D+00  E= 2.146327D-01  Symmetry=e
              MO Center= -1.9D-02, -8.9D-02, -9.1D-01, r^2= 6.0D+00
   Bfn.  Coefficient  Atom+Function         Bfn.  Coefficient  Atom+Function  
  ----- ------------  ---------------      ----- ------------  ---------------
    10      1.086569  1 O  py                 9     -0.591449  1 O  px         
    18     -0.540365  2 C  py                23     -0.348494  4 H  s          
    17      0.294135  2 C  px                 7     -0.277051  1 O  py         
    25      0.247042  5 H  s                  6      0.150806  1 O  px         

 Vector   10  Occ=0.000000D+00  E= 2.146327D-01  Symmetry=e
              MO Center=  1.9D-02,  8.9D-02, -9.1D-01, r^2= 6.0D+00
   Bfn.  Coefficient  Atom+Function         Bfn.  Coefficient  Atom+Function  
  ----- ------------  ---------------      ----- ------------  ---------------
     9      1.086569  1 O  px                10      0.591449  1 O  py         
    17     -0.540365  2 C  px                21      0.343833  3 H  s          
    18     -0.294135  2 C  py                 6     -0.277051  1 O  px         
    25     -0.259776  5 H  s                  7     -0.150806  1 O  py         

 Vector   11  Occ=0.000000D+00  E= 2.862067D-01  Symmetry=a1
              MO Center=  1.1D-16, -8.3D-17,  8.6D-01, r^2= 3.7D+00
   Bfn.  Coefficient  Atom+Function         Bfn.  Coefficient  Atom+Function  
  ----- ------------  ---------------      ----- ------------  ---------------
    13      2.530768  2 C  s                 21     -1.511177  3 H  s          
    23     -1.511177  4 H  s                 25     -1.511177  5 H  s          
    19      1.214954  2 C  pz                 2      0.324363  1 O  s          
    12     -0.259996  2 C  s                 11      0.221788  1 O  pz         
    16     -0.203592  2 C  pz         

 Vector   12  Occ=0.000000D+00  E= 3.624249D-01  Symmetry=e
              MO Center= -1.8D-01, -2.3D-01,  7.9D-01, r^2= 3.4D+00
   Bfn.  Coefficient  Atom+Function         Bfn.  Coefficient  Atom+Function  
  ----- ------------  ---------------      ----- ------------  ---------------
    23      1.789305  4 H  s                 25     -1.660573  5 H  s          
    18      1.194440  2 C  py                17     -1.049416  2 C  px         
     7     -0.320232  1 O  py                 6      0.281351  1 O  px         
    15     -0.248083  2 C  py                10      0.228365  1 O  py         
    14      0.217962  2 C  px                 9     -0.200638  1 O  px         

 Vector   13  Occ=0.000000D+00  E= 3.624249D-01  Symmetry=e
              MO Center=  1.8D-01,  2.3D-01,  7.9D-01, r^2= 3.4D+00
   Bfn.  Coefficient  Atom+Function         Bfn.  Coefficient  Atom+Function  
  ----- ------------  ---------------      ----- ------------  ---------------
    21      1.991788  3 H  s                 17     -1.194440  2 C  px         
    25     -1.107379  5 H  s                 18     -1.049416  2 C  py         
    23     -0.884409  4 H  s                  6      0.320232  1 O  px         
     7      0.281351  1 O  py                14      0.248083  2 C  px         
     9     -0.228365  1 O  px                15      0.217962  2 C  py         

 Vector   14  Occ=0.000000D+00  E= 4.082055D-01  Symmetry=a1
              MO Center= -2.0D-16,  8.7D-16,  5.0D-01, r^2= 3.4D+00
   Bfn.  Coefficient  Atom+Function         Bfn.  Coefficient  Atom+Function  
  ----- ------------  ---------------      ----- ------------  ---------------
    13      1.713555  2 C  s                 19     -1.246882  2 C  pz         
     2     -1.229762  1 O  s                  8     -0.781246  1 O  pz         
    21     -0.546724  3 H  s                 23     -0.546724  4 H  s          
    25     -0.546724  5 H  s                 11      0.531162  1 O  pz         
     5     -0.248848  1 O  pz                12     -0.196338  2 C  s          

 Vector   15  Occ=0.000000D+00  E= 8.179575D-01  Symmetry=e
              MO Center=  2.3D-01, -9.5D-03,  4.6D-01, r^2= 2.6D+00
   Bfn.  Coefficient  Atom+Function         Bfn.  Coefficient  Atom+Function  
  ----- ------------  ---------------      ----- ------------  ---------------
    17      1.829892  2 C  px                14      0.784678  2 C  px         
    18     -0.714164  2 C  py                 9     -0.439445  1 O  px         
    25      0.438975  5 H  s                 24      0.427430  5 H  s          
    15     -0.306241  2 C  py                23     -0.261589  4 H  s          
    22     -0.254709  4 H  s                  6     -0.248766  1 O  px         

 Vector   16  Occ=0.000000D+00  E= 8.179575D-01  Symmetry=e
              MO Center= -2.3D-01,  9.5D-03,  4.6D-01, r^2= 2.6D+00
   Bfn.  Coefficient  Atom+Function         Bfn.  Coefficient  Atom+Function  
  ----- ------------  ---------------      ----- ------------  ---------------
    18      1.829892  2 C  py                15      0.784678  2 C  py         
    17      0.714164  2 C  px                10     -0.439445  1 O  py         
    21     -0.404470  3 H  s                 20     -0.393834  3 H  s          
    23      0.355856  4 H  s                 22      0.346497  4 H  s          
    14      0.306241  2 C  px                 7     -0.248766  1 O  py         

 Vector   17  Occ=0.000000D+00  E= 9.037272D-01  Symmetry=a1
              MO Center= -1.9D-17, -8.7D-18,  2.1D-01, r^2= 1.3D+00
   Bfn.  Coefficient  Atom+Function         Bfn.  Coefficient  Atom+Function  
  ----- ------------  ---------------      ----- ------------  ---------------
    16      1.110147  2 C  pz                19      0.945834  2 C  pz         
    13      0.800867  2 C  s                  8     -0.414137  1 O  pz         
     5     -0.408557  1 O  pz                21     -0.368217  3 H  s          
    23     -0.368217  4 H  s                 25     -0.368217  5 H  s          
    12     -0.338671  2 C  s                  1      0.172540  1 O  s          


 center of mass
 --------------
 x =   0.00000000 y =   0.00000000 z =  -0.18032899

 moments of inertia (a.u.)
 ------------------
          64.611309796422           0.000000000000           0.000000000000
           0.000000000000          64.611309796422           0.000000000000
           0.000000000000           0.000000000000          11.036679212476

  Mulliken analysis of the total density
  --------------------------------------

    Atom       Charge   Shell Charges
 -----------   ------   -------------------------------------------------------
    1 O    6     7.09   0.83  1.04  2.71  2.21  0.30
    2 C    4     4.08   0.89  0.32  2.00  0.87
    3 H    1     0.94   0.56  0.38
    4 H    1     0.94   0.56  0.38
    5 H    1     0.94   0.56  0.38

       Multipole analysis of the density wrt the origin
       ------------------------------------------------

     L   x y z        total         open         nuclear
     -   - - -        -----         ----         -------
     0   0 0 0     -1.000000      0.000000     13.000000

     1   1 0 0      0.000000      0.000000      0.000000
     1   0 1 0      0.000000      0.000000      0.000000
     1   0 0 1      2.016777      0.000000      0.882212

     2   2 0 0    -11.853636      0.000000      5.475494
     2   1 1 0      0.000000      0.000000      0.000000
     2   1 0 1      0.000000      0.000000      0.000000
     2   0 2 0    -11.853636      0.000000      5.475494
     2   0 1 1      0.000000      0.000000      0.000000
     2   0 0 2    -15.586091      0.000000     28.590812


 Parallel integral file used       4 records with       0 large values

                              NWChem Gradients Module
                              -----------------------



  wavefunction    =   RHF     

  Using symmetry


                         RHF ENERGY GRADIENTS

    atom               coordinates                        gradient
                 x          y          z           x          y          z
   1 o       0.000000   0.000000  -1.499342    0.000000   0.000000   0.047785
   2 c       0.000000   0.000000   1.058235    0.000000   0.000000  -0.045117
   3 h       1.350987   1.350987   1.881773    0.001992   0.001992  -0.000890
   4 h       0.494495  -1.845482   1.881773    0.000729  -0.002721  -0.000890
   5 h      -1.845482   0.494495   1.881773   -0.002721   0.000729  -0.000890

                 ----------------------------------------
                 |  Time  |  1-e(secs)   |  2-e(secs)   |
                 ----------------------------------------
                 |  CPU   |       0.02   |       0.04   |
                 ----------------------------------------
                 |  WALL  |       0.02   |       0.04   |
                 ----------------------------------------

@ Step       Energy      Delta E   Gmax     Grms     Xrms     Xmax   Walltime
@ ---- ---------------- -------- -------- -------- -------- -------- --------
@    0     -23.04046107  0.0D+00  0.04779  0.01518  0.00000  0.00000      8.0
                                                                    



                                Z-matrix (autoz)
                                -------- 

 Units are Angstrom for bonds and degrees for angles

      Type          Name      I     J     K     L     M      Value     Gradient
      ----------- --------  ----- ----- ----- ----- ----- ---------- ----------
    1 Stretch                  1     2                       1.35341   -0.04779
    2 Stretch                  2     3                       1.10096    0.00223
    3 Stretch                  2     4                       1.10096    0.00223
    4 Stretch                  2     5                       1.10096    0.00223
    5 Bend                     1     2     3               113.31798   -0.00093
    6 Bend                     1     2     4               113.31798   -0.00093
    7 Bend                     1     2     5               113.31798   -0.00093
    8 Bend                     3     2     4               105.36538    0.00106
    9 Bend                     3     2     5               105.36538    0.00106
   10 Bend                     4     2     5               105.36538    0.00106


          ---------------
          -cosmo- solvent
          ---------------
 dielectric constant -eps-     =  78.40
 charge screening approach     =   2
 screen = (eps-1)/(eps    )    =   0.98724
 -lineq- algorithm             =   1
 -bem- low  level              =   2
 -bem- high level              =   4
 -bem- from -octahedral-
 solvent radius (ang.)         =   0.000
 gaussian surface charge width =   0.98000
 degree of switching           =   1.00000
 switching function tolerance  =   0.00010
 atomic radii = 
 --------------
    1  6.000  1.720
    2  4.000  2.000
    3  1.000  1.300
    4  1.000  1.300
    5  1.000  1.300

 solvent accessible surface
 --------------------------

 ---------- ATOMIC COORDINATES (A.U.) ------------ VDWR(ANG.) --
     1    0.00000000    0.00000000   -1.59986149     1.720
     2    0.00000000    0.00000000    1.07205897     2.000
     3    1.34124790    1.34124790    1.91067218     1.300
     4    0.49093080   -1.83217870    1.91067218     1.300
     5   -1.83217870    0.49093080    1.91067218     1.300
 number of segments per atom =         32
 number of   points per atom =         32
 atom (   nspa,  nppa )
 ----------------------
    1 (     24,     0 )       0
    2 (     25,     0 )       0
    3 (     15,     0 )       0
    4 (     15,     0 )       0
    5 (     15,     0 )       0
 number of -cosmo- surface points =       94
 molecular surface =     64.405 angstrom**2
 molecular volume  =     36.439 angstrom**3
 G(cav/disp)       =      1.182 kcal/mol
 ...... end of -cosmo- initialization ......


                                 NWChem SCF Module
                                 -----------------



  ao basis        = "ao basis"
  functions       =    25
  atoms           =     5
  closed shells   =     7
  open shells     =     0
  charge          =  -1.00
  wavefunction    = RHF 
  input vectors   = /home/d3y133/nwchem-dev/nwchem-dev-2013-10-16/QA/scratchdir/h3co_dat.movecs
  output vectors  = /home/d3y133/nwchem-dev/nwchem-dev-2013-10-16/QA/scratchdir/h3co_dat.movecs
  use symmetry    = T
  symmetry adapt  = T


 Summary of "ao basis" -> "ao basis" (cartesian)
 ------------------------------------------------------------------------------
       Tag                 Description            Shells   Functions and Types
 ---------------- ------------------------------  ------  ---------------------
 h                           6-31g*                  2        2   2s
 c                     Stuttgart RLC ECP             4        8   2s2p
 o                     Stuttgart RLC ECP             5       11   2s3p


      Symmetry analysis of basis
      --------------------------

        a1         11
        a2          0
        e          14


 Forming initial guess at       8.1s


 Loading old vectors from job with title :




      Symmetry analysis of molecular orbitals - initial
      -------------------------------------------------

  Numbering of irreducible representations: 

     1 a1          2 a2          3 e       

  Orbital symmetries:

     1 a1          2 a1          3 e           4 e           5 a1      
     6 e           7 e           8 a1          9 e          10 e       
    11 a1         12 e          13 e          14 a1         15 e       
    16 e          17 a1      


 Starting SCF solution at       8.1s



 ----------------------------------------------
         Quadratically convergent ROHF

 Convergence threshold     :          1.000E-04
 Maximum no. of iterations :           30
 Final Fock-matrix accuracy:          1.000E-07
 ----------------------------------------------

     COSMO gas phase

 #quartets = 2.892D+03 #integrals = 1.727D+04 #direct =  0.0% #cached =100.0%


 Integral file          = /home/d3y133/nwchem-dev/nwchem-dev-2013-10-16/QA/scratchdir/h3co_dat.aoints.0
 Record size in doubles =  65536        No. of integs per rec  =  43688
 Max. records in memory =      2        Max. records in file   =   5743
 No. of bits per label  =      8        No. of bits per value  =     64


File balance: exchanges=     0  moved=     0  time=   0.0


              iter       energy          gnorm     gmax       time
             ----- ------------------- --------- --------- --------
                 1      -22.8993730089  2.28D-01  1.28D-01      6.4
                 2      -22.9058318995  1.28D-01  4.25D-02      6.4
                 3      -22.9070709537  9.35D-03  2.52D-03      6.5
                 4      -22.9070879089  6.65D-05  2.70D-05      6.5
     COSMO solvation phase

              iter       energy          gnorm     gmax       time
             ----- ------------------- --------- --------- --------
                 1      -23.0376863769  1.64D-01  8.37D-02      8.5
                 2      -23.0428767939  3.19D-02  1.78D-02      9.4
                 3      -23.0431050417  6.35D-03  3.43D-03     10.3
                 4      -23.0431137282  1.22D-03  6.42D-04     11.2
                 5      -23.0431140550  2.37D-04  1.24D-04     11.9
                 6      -23.0431140673  4.62D-05  2.53D-05     12.4
 
                  COSMO solvation results
                  -----------------------
 
                 gas phase energy =       -22.9070879089
                 sol phase energy =       -23.0431140673
 (electrostatic) solvation energy =         0.1360261583 (   85.36 kcal/mol)


       Final RHF  results 
       ------------------ 

         Total SCF energy =    -23.043114067256
      One-electron energy =    -84.363404141244
      Two-electron energy =     37.834194309374
 Nuclear repulsion energy =     20.192618530691

        Time for solution =      5.9s



       Symmetry analysis of molecular orbitals - final
       -----------------------------------------------

  Numbering of irreducible representations: 

     1 a1          2 a2          3 e       

  Orbital symmetries:

     1 a1          2 a1          3 e           4 e           5 a1      
     6 e           7 e           8 a1          9 e          10 e       
    11 a1         12 e          13 e          14 a1         15 e       
    16 e          17 a1      

             Final eigenvalues
             -----------------

              1      
    1   -1.2073
    2   -0.8656
    3   -0.5582
    4   -0.5582
    5   -0.4789
    6   -0.3396
    7   -0.3396
    8    0.1919
    9    0.2174
   10    0.2174
   11    0.2862
   12    0.3585
   13    0.3585
   14    0.3953
   15    0.8114
   16    0.8114
   17    0.8491

                       ROHF Final Molecular Orbital Analysis
                       -------------------------------------

 Vector    1  Occ=2.000000D+00  E=-1.207323D+00  Symmetry=a1
              MO Center= -4.3D-18,  2.0D-18, -5.1D-01, r^2= 6.6D-01
   Bfn.  Coefficient  Atom+Function         Bfn.  Coefficient  Atom+Function  
  ----- ------------  ---------------      ----- ------------  ---------------
     2      0.457094  1 O  s                  1     -0.396396  1 O  s          
    12     -0.229144  2 C  s          

 Vector    2  Occ=2.000000D+00  E=-8.655905D-01  Symmetry=a1
              MO Center= -1.9D-17, -9.1D-18,  6.0D-01, r^2= 1.4D+00
   Bfn.  Coefficient  Atom+Function         Bfn.  Coefficient  Atom+Function  
  ----- ------------  ---------------      ----- ------------  ---------------
    12      0.425194  2 C  s                  2      0.273977  1 O  s          
    13     -0.197515  2 C  s                  1     -0.183748  1 O  s          
    20     -0.150471  3 H  s                 22     -0.150471  4 H  s          
    24     -0.150471  5 H  s          

 Vector    3  Occ=2.000000D+00  E=-5.581924D-01  Symmetry=e
              MO Center= -1.7D-01,  7.8D-02,  5.0D-01, r^2= 1.5D+00
   Bfn.  Coefficient  Atom+Function         Bfn.  Coefficient  Atom+Function  
  ----- ------------  ---------------      ----- ------------  ---------------
    14      0.401564  2 C  px                24      0.248685  5 H  s          
     3     -0.219330  1 O  px                17     -0.205886  2 C  px         
    25      0.187784  5 H  s          

 Vector    4  Occ=2.000000D+00  E=-5.581924D-01  Symmetry=e
              MO Center=  1.7D-01, -7.8D-02,  5.0D-01, r^2= 1.5D+00
   Bfn.  Coefficient  Atom+Function         Bfn.  Coefficient  Atom+Function  
  ----- ------------  ---------------      ----- ------------  ---------------
    15      0.401564  2 C  py                22      0.226578  4 H  s          
     4     -0.219330  1 O  py                18     -0.205886  2 C  py         
    20     -0.204157  3 H  s                 23      0.171091  4 H  s          
    21     -0.154161  3 H  s          

 Vector    5  Occ=2.000000D+00  E=-4.789439D-01  Symmetry=a1
              MO Center= -1.7D-18, -1.3D-18, -5.1D-01, r^2= 1.4D+00
   Bfn.  Coefficient  Atom+Function         Bfn.  Coefficient  Atom+Function  
  ----- ------------  ---------------      ----- ------------  ---------------
     5      0.451067  1 O  pz                16      0.370076  2 C  pz         
     8      0.355475  1 O  pz                 2     -0.207222  1 O  s          

 Vector    6  Occ=2.000000D+00  E=-3.396329D-01  Symmetry=e
              MO Center= -6.5D-02,  3.4D-02, -5.2D-01, r^2= 1.5D+00
   Bfn.  Coefficient  Atom+Function         Bfn.  Coefficient  Atom+Function  
  ----- ------------  ---------------      ----- ------------  ---------------
     3      0.532485  1 O  px                 6      0.465523  1 O  px         
    25      0.267690  5 H  s                  9      0.166471  1 O  px         
    24      0.164792  5 H  s                 21     -0.160009  3 H  s          
    14      0.155072  2 C  px         

 Vector    7  Occ=2.000000D+00  E=-3.396329D-01  Symmetry=e
              MO Center=  6.5D-02, -3.4D-02, -5.2D-01, r^2= 1.5D+00
   Bfn.  Coefficient  Atom+Function         Bfn.  Coefficient  Atom+Function  
  ----- ------------  ---------------      ----- ------------  ---------------
     4      0.532485  1 O  py                 7      0.465523  1 O  py         
    23      0.246932  4 H  s                 21     -0.216721  3 H  s          
    10      0.166471  1 O  py                15      0.155072  2 C  py         
    22      0.152014  4 H  s          

 Vector    8  Occ=0.000000D+00  E= 1.918543D-01  Symmetry=a1
              MO Center=  6.9D-18,  2.6D-18, -2.1D+00, r^2= 4.1D+00
   Bfn.  Coefficient  Atom+Function         Bfn.  Coefficient  Atom+Function  
  ----- ------------  ---------------      ----- ------------  ---------------
    11      1.418496  1 O  pz                13     -0.687382  2 C  s          
     2      0.532211  1 O  s                 19      0.313235  2 C  pz         

 Vector    9  Occ=0.000000D+00  E= 2.173971D-01  Symmetry=e
              MO Center=  8.1D-02, -3.0D-02, -9.7D-01, r^2= 6.0D+00
   Bfn.  Coefficient  Atom+Function         Bfn.  Coefficient  Atom+Function  
  ----- ------------  ---------------      ----- ------------  ---------------
    10      1.205454  1 O  py                18     -0.587503  2 C  py         
     7     -0.327539  1 O  py                23     -0.319254  4 H  s          
    21      0.302681  3 H  s                  9      0.264096  1 O  px         
     4     -0.154677  1 O  py         

 Vector   10  Occ=0.000000D+00  E= 2.173971D-01  Symmetry=e
              MO Center= -8.1D-02,  3.0D-02, -9.7D-01, r^2= 6.0D+00
   Bfn.  Coefficient  Atom+Function         Bfn.  Coefficient  Atom+Function  
  ----- ------------  ---------------      ----- ------------  ---------------
     9      1.205454  1 O  px                17     -0.587503  2 C  px         
    25     -0.359074  5 H  s                  6     -0.327539  1 O  px         
    10     -0.264096  1 O  py                21      0.193890  3 H  s          
    23      0.165184  4 H  s                  3     -0.154677  1 O  px         

 Vector   11  Occ=0.000000D+00  E= 2.861782D-01  Symmetry=a1
              MO Center=  6.7D-16,  6.4D-16,  8.7D-01, r^2= 3.7D+00
   Bfn.  Coefficient  Atom+Function         Bfn.  Coefficient  Atom+Function  
  ----- ------------  ---------------      ----- ------------  ---------------
    13      2.582215  2 C  s                 21     -1.536004  3 H  s          
    23     -1.536004  4 H  s                 25     -1.536004  5 H  s          
    19      1.246894  2 C  pz                 2      0.317192  1 O  s          
    12     -0.259543  2 C  s                 11      0.235600  1 O  pz         
    16     -0.202789  2 C  pz         

 Vector   12  Occ=0.000000D+00  E= 3.584727D-01  Symmetry=e
              MO Center= -3.0D-01, -5.1D-02,  8.2D-01, r^2= 3.4D+00
   Bfn.  Coefficient  Atom+Function         Bfn.  Coefficient  Atom+Function  
  ----- ------------  ---------------      ----- ------------  ---------------
    25      1.940368  5 H  s                 17      1.388423  2 C  px         
    23     -1.337474  4 H  s                 18     -0.717519  2 C  py         
    21     -0.602894  3 H  s                  6     -0.349430  1 O  px         
    14     -0.294281  2 C  px                 9      0.251668  1 O  px         
     7      0.180581  1 O  py                15      0.152080  2 C  py         

 Vector   13  Occ=0.000000D+00  E= 3.584727D-01  Symmetry=e
              MO Center=  3.0D-01,  5.1D-02,  8.2D-01, r^2= 3.4D+00
   Bfn.  Coefficient  Atom+Function         Bfn.  Coefficient  Atom+Function  
  ----- ------------  ---------------      ----- ------------  ---------------
    21      1.892463  3 H  s                 23     -1.468353  4 H  s          
    18     -1.388423  2 C  py                17     -0.717519  2 C  px         
    25     -0.424110  5 H  s                  7      0.349430  1 O  py         
    15      0.294281  2 C  py                10     -0.251668  1 O  py         
     6      0.180581  1 O  px                14      0.152080  2 C  px         

 Vector   14  Occ=0.000000D+00  E= 3.952749D-01  Symmetry=a1
              MO Center=  3.5D-16, -2.3D-16,  3.9D-01, r^2= 3.4D+00
   Bfn.  Coefficient  Atom+Function         Bfn.  Coefficient  Atom+Function  
  ----- ------------  ---------------      ----- ------------  ---------------
    13      1.506361  2 C  s                 19     -1.153898  2 C  pz         
     2     -1.083818  1 O  s                  8     -0.809448  1 O  pz         
    11      0.548622  1 O  pz                21     -0.500714  3 H  s          
    23     -0.500714  4 H  s                 25     -0.500714  5 H  s          
     5     -0.284423  1 O  pz                12     -0.211503  2 C  s          

 Vector   15  Occ=0.000000D+00  E= 8.114338D-01  Symmetry=e
              MO Center=  2.2D-01, -3.8D-02,  4.6D-01, r^2= 2.6D+00
   Bfn.  Coefficient  Atom+Function         Bfn.  Coefficient  Atom+Function  
  ----- ------------  ---------------      ----- ------------  ---------------
    17      1.820226  2 C  px                14      0.789181  2 C  px         
    18     -0.573726  2 C  py                24      0.442019  5 H  s          
     9     -0.433568  1 O  px                25      0.410423  5 H  s          
    15     -0.248746  2 C  py                22     -0.237687  4 H  s          
     6     -0.230635  1 O  px                23     -0.220696  4 H  s          

 Vector   16  Occ=0.000000D+00  E= 8.114338D-01  Symmetry=e
              MO Center= -2.2D-01,  3.8D-02,  4.6D-01, r^2= 2.6D+00
   Bfn.  Coefficient  Atom+Function         Bfn.  Coefficient  Atom+Function  
  ----- ------------  ---------------      ----- ------------  ---------------
    18      1.820226  2 C  py                15      0.789181  2 C  py         
    17      0.573726  2 C  px                10     -0.433568  1 O  py         
    20     -0.392429  3 H  s                 22      0.373171  4 H  s          
    21     -0.364377  3 H  s                 23      0.346496  4 H  s          
    14      0.248746  2 C  px                 7     -0.230635  1 O  py         

 Vector   17  Occ=0.000000D+00  E= 8.490700D-01  Symmetry=a1
              MO Center=  3.9D-17,  6.9D-17,  2.7D-01, r^2= 1.4D+00
   Bfn.  Coefficient  Atom+Function         Bfn.  Coefficient  Atom+Function  
  ----- ------------  ---------------      ----- ------------  ---------------
    16      1.069796  2 C  pz                19      1.052117  2 C  pz         
    13      0.490653  2 C  s                  5     -0.396784  1 O  pz         
    12     -0.344189  2 C  s                 21     -0.287409  3 H  s          
    23     -0.287409  4 H  s                 25     -0.287409  5 H  s          
     2      0.280942  1 O  s                  8     -0.257291  1 O  pz         


 center of mass
 --------------
 x =   0.00000000 y =   0.00000000 z =  -0.22399823

 moments of inertia (a.u.)
 ------------------
          69.652023550610           0.000000000000           0.000000000000
           0.000000000000          69.652023550610           0.000000000000
           0.000000000000           0.000000000000          10.878136059904

  Mulliken analysis of the total density
  --------------------------------------

    Atom       Charge   Shell Charges
 -----------   ------   -------------------------------------------------------
    1 O    6     7.12   0.83  1.05  2.68  2.23  0.33
    2 C    4     4.09   0.89  0.33  1.98  0.89
    3 H    1     0.93   0.56  0.37
    4 H    1     0.93   0.56  0.37
    5 H    1     0.93   0.56  0.37

       Multipole analysis of the density wrt the origin
       ------------------------------------------------

     L   x y z        total         open         nuclear
     -   - - -        -----         ----         -------
     0   0 0 0     -1.000000      0.000000     13.000000

     1   1 0 0      0.000000      0.000000      0.000000
     1   0 1 0      0.000000      0.000000      0.000000
     1   0 0 1      2.187741      0.000000      0.421083

     2   2 0 0    -11.897879      0.000000      5.396838
     2   1 1 0      0.000000      0.000000      0.000000
     2   1 0 1      0.000000      0.000000      0.000000
     2   0 2 0    -11.897879      0.000000      5.396838
     2   0 1 1      0.000000      0.000000      0.000000
     2   0 0 2    -15.752469      0.000000     30.906587


 Parallel integral file used       4 records with       0 large values

 Line search: 
     step= 1.00 grad=-5.6D-03 hess= 3.0D-03 energy=    -23.043114 mode=accept  
 new step= 1.00                   predicted energy=    -23.043114

          --------
          Step   1
          --------


                         Geometry "geometry" -> "geometry"
                         ---------------------------------

 Output coordinates in angstroms (scale by  1.889725989 to convert to a.u.)

  No.       Tag          Charge          X              Y              Z
 ---- ---------------- ---------- -------------- -------------- --------------
    1 o                    8.0000     0.00000000     0.00000000    -0.84661030
    2 c                    6.0000     0.00000000     0.00000000     0.56730922
    3 h                    1.0000     0.70975787     0.70975787     1.01108425
    4 h                    1.0000     0.25978941    -0.96954729     1.01108425
    5 h                    1.0000    -0.96954729     0.25978941     1.01108425

      Atomic Mass 
      ----------- 

      o                 15.994910
      c                 12.000000
      h                  1.007825


 Effective nuclear repulsion energy (a.u.)      33.5716692824

            Nuclear Dipole moment (a.u.) 
            ----------------------------
        X                 Y               Z
 ---------------- ---------------- ----------------
     0.0000000000     0.0000000000    -0.6345215617

      Symmetry information
      --------------------

 Group name             C3v       
 Group number             17
 Group order               6
 No. of unique centers     3

      Symmetry unique atoms

     1    2    3


          ---------------
          -cosmo- solvent
          ---------------
 dielectric constant -eps-     =  78.40
 charge screening approach     =   2
 screen = (eps-1)/(eps    )    =   0.98724
 -lineq- algorithm             =   1
 -bem- low  level              =   2
 -bem- high level              =   4
 -bem- from -octahedral-
 solvent radius (ang.)         =   0.000
 gaussian surface charge width =   0.98000
 degree of switching           =   1.00000
 switching function tolerance  =   0.00010
 atomic radii = 
 --------------
    1  6.000  1.720
    2  4.000  2.000
    3  1.000  1.300
    4  1.000  1.300
    5  1.000  1.300

 solvent accessible surface
 --------------------------

 ---------- ATOMIC COORDINATES (A.U.) ------------ VDWR(ANG.) --
     1    0.00000000    0.00000000   -1.59986149     1.720
     2    0.00000000    0.00000000    1.07205897     2.000
     3    1.34124790    1.34124790    1.91067218     1.300
     4    0.49093080   -1.83217870    1.91067218     1.300
     5   -1.83217870    0.49093080    1.91067218     1.300
 number of segments per atom =         32
 number of   points per atom =         32
 atom (   nspa,  nppa )
 ----------------------
    1 (     24,     0 )       0
    2 (     25,     0 )       0
    3 (     15,     0 )       0
    4 (     15,     0 )       0
    5 (     15,     0 )       0
 number of -cosmo- surface points =       94
 molecular surface =     64.405 angstrom**2
 molecular volume  =     36.439 angstrom**3
 G(cav/disp)       =      1.182 kcal/mol
 ...... end of -cosmo- initialization ......


                                 NWChem SCF Module
                                 -----------------



  ao basis        = "ao basis"
  functions       =    25
  atoms           =     5
  closed shells   =     7
  open shells     =     0
  charge          =  -1.00
  wavefunction    = RHF 
  input vectors   = /home/d3y133/nwchem-dev/nwchem-dev-2013-10-16/QA/scratchdir/h3co_dat.movecs
  output vectors  = /home/d3y133/nwchem-dev/nwchem-dev-2013-10-16/QA/scratchdir/h3co_dat.movecs
  use symmetry    = T
  symmetry adapt  = T


 Summary of "ao basis" -> "ao basis" (cartesian)
 ------------------------------------------------------------------------------
       Tag                 Description            Shells   Functions and Types
 ---------------- ------------------------------  ------  ---------------------
 h                           6-31g*                  2        2   2s
 c                     Stuttgart RLC ECP             4        8   2s2p
 o                     Stuttgart RLC ECP             5       11   2s3p


      Symmetry analysis of basis
      --------------------------

        a1         11
        a2          0
        e          14


  The SCF is already converged 

         Total SCF energy =    -23.043114067256

                              NWChem Gradients Module
                              -----------------------



  wavefunction    =   RHF     

  Using symmetry


                         RHF ENERGY GRADIENTS

    atom               coordinates                        gradient
                 x          y          z           x          y          z
   1 o       0.000000   0.000000  -1.599861    0.000000   0.000000   0.001071
   2 c       0.000000   0.000000   1.072059    0.000000   0.000000  -0.014236
   3 h       1.341248   1.341248   1.910672    0.000684   0.000684   0.004388
   4 h       0.490931  -1.832179   1.910672    0.000250  -0.000934   0.004388
   5 h      -1.832179   0.490931   1.910672   -0.000934   0.000250   0.004388

                 ----------------------------------------
                 |  Time  |  1-e(secs)   |  2-e(secs)   |
                 ----------------------------------------
                 |  CPU   |       0.02   |       0.04   |
                 ----------------------------------------
                 |  WALL  |       0.02   |       0.04   |
                 ----------------------------------------

  Step       Energy      Delta E   Gmax     Grms     Xrms     Xmax   Walltime
  ---- ---------------- -------- -------- -------- -------- -------- --------
@    1     -23.04311407 -2.7D-03  0.00266  0.00207  0.02983  0.10042     14.7
                                                                    



                                Z-matrix (autoz)
                                -------- 

 Units are Angstrom for bonds and degrees for angles

      Type          Name      I     J     K     L     M      Value     Gradient
      ----------- --------  ----- ----- ----- ----- ----- ---------- ----------
    1 Stretch                  1     2                       1.41392   -0.00107
    2 Stretch                  2     3                       1.09747    0.00266
    3 Stretch                  2     4                       1.09747    0.00266
    4 Stretch                  2     5                       1.09747    0.00266
    5 Bend                     1     2     3               113.85106    0.00172
    6 Bend                     1     2     4               113.85106    0.00172
    7 Bend                     1     2     5               113.85106    0.00172
    8 Bend                     3     2     4               104.75811   -0.00197
    9 Bend                     3     2     5               104.75811   -0.00197
   10 Bend                     4     2     5               104.75811   -0.00197


          ---------------
          -cosmo- solvent
          ---------------
 dielectric constant -eps-     =  78.40
 charge screening approach     =   2
 screen = (eps-1)/(eps    )    =   0.98724
 -lineq- algorithm             =   1
 -bem- low  level              =   2
 -bem- high level              =   4
 -bem- from -octahedral-
 solvent radius (ang.)         =   0.000
 gaussian surface charge width =   0.98000
 degree of switching           =   1.00000
 switching function tolerance  =   0.00010
 atomic radii = 
 --------------
    1  6.000  1.720
    2  4.000  2.000
    3  1.000  1.300
    4  1.000  1.300
    5  1.000  1.300

 solvent accessible surface
 --------------------------

 ---------- ATOMIC COORDINATES (A.U.) ------------ VDWR(ANG.) --
     1    0.00000000    0.00000000   -1.58843278     1.720
     2    0.00000000    0.00000000    1.09512713     2.000
     3    1.34540735    1.34540735    1.89917322     1.300
     4    0.49245327   -1.83786061    1.89917322     1.300
     5   -1.83786061    0.49245327    1.89917322     1.300
 number of segments per atom =         32
 number of   points per atom =         32
 atom (   nspa,  nppa )
 ----------------------
    1 (     24,     0 )       0
    2 (     25,     0 )       0
    3 (     15,     0 )       0
    4 (     15,     0 )       0
    5 (     15,     0 )       0
 number of -cosmo- surface points =       94
 molecular surface =     64.134 angstrom**2
 molecular volume  =     36.289 angstrom**3
 G(cav/disp)       =      1.181 kcal/mol
 ...... end of -cosmo- initialization ......


                                 NWChem SCF Module
                                 -----------------



  ao basis        = "ao basis"
  functions       =    25
  atoms           =     5
  closed shells   =     7
  open shells     =     0
  charge          =  -1.00
  wavefunction    = RHF 
  input vectors   = /home/d3y133/nwchem-dev/nwchem-dev-2013-10-16/QA/scratchdir/h3co_dat.movecs
  output vectors  = /home/d3y133/nwchem-dev/nwchem-dev-2013-10-16/QA/scratchdir/h3co_dat.movecs
  use symmetry    = T
  symmetry adapt  = T


 Summary of "ao basis" -> "ao basis" (cartesian)
 ------------------------------------------------------------------------------
       Tag                 Description            Shells   Functions and Types
 ---------------- ------------------------------  ------  ---------------------
 h                           6-31g*                  2        2   2s
 c                     Stuttgart RLC ECP             4        8   2s2p
 o                     Stuttgart RLC ECP             5       11   2s3p


      Symmetry analysis of basis
      --------------------------

        a1         11
        a2          0
        e          14


 Forming initial guess at      14.7s


 Loading old vectors from job with title :




      Symmetry analysis of molecular orbitals - initial
      -------------------------------------------------

  Numbering of irreducible representations: 

     1 a1          2 a2          3 e       

  Orbital symmetries:

     1 a1          2 a1          3 e           4 e           5 a1      
     6 e           7 e           8 a1          9 e          10 e       
    11 a1         12 e          13 e          14 a1         15 e       
    16 e          17 a1      


 Starting SCF solution at      14.7s



 ----------------------------------------------
         Quadratically convergent ROHF

 Convergence threshold     :          1.000E-04
 Maximum no. of iterations :           30
 Final Fock-matrix accuracy:          1.000E-07
 ----------------------------------------------

     COSMO gas phase

 #quartets = 2.892D+03 #integrals = 1.727D+04 #direct =  0.0% #cached =100.0%


 Integral file          = /home/d3y133/nwchem-dev/nwchem-dev-2013-10-16/QA/scratchdir/h3co_dat.aoints.0
 Record size in doubles =  65536        No. of integs per rec  =  43688
 Max. records in memory =      2        Max. records in file   =   5743
 No. of bits per label  =      8        No. of bits per value  =     64


File balance: exchanges=     0  moved=     0  time=   0.0


              iter       energy          gnorm     gmax       time
             ----- ------------------- --------- --------- --------
                 1      -22.9006550798  1.89D-01  1.07D-01     12.5
                 2      -22.9059277595  1.10D-01  4.71D-02     12.5
                 3      -22.9068106050  6.62D-03  2.14D-03     12.5
                 4      -22.9068200913  1.70D-05  5.14D-06     12.5
     COSMO solvation phase

              iter       energy          gnorm     gmax       time
             ----- ------------------- --------- --------- --------
                 1      -23.0379356798  1.64D-01  8.59D-02     14.9
                 2      -23.0431828109  3.16D-02  1.80D-02     16.0
                 3      -23.0434085552  6.24D-03  3.42D-03     17.1
                 4      -23.0434169818  1.19D-03  6.36D-04     18.0
                 5      -23.0434172934  2.29D-04  1.22D-04     18.8
                 6      -23.0434173049  4.42D-05  2.46D-05     19.4
 
                  COSMO solvation results
                  -----------------------
 
                 gas phase energy =       -22.9068200913
                 sol phase energy =       -23.0434173049
 (electrostatic) solvation energy =         0.1365972136 (   85.72 kcal/mol)


       Final RHF  results 
       ------------------ 

         Total SCF energy =    -23.043417304862
      One-electron energy =    -84.376640346746
      Two-electron energy =     37.843567750599
 Nuclear repulsion energy =     20.193828130089

        Time for solution =      6.9s



       Symmetry analysis of molecular orbitals - final
       -----------------------------------------------

  Numbering of irreducible representations: 

     1 a1          2 a2          3 e       

  Orbital symmetries:

     1 a1          2 a1          3 e           4 e           5 a1      
     6 e           7 e           8 a1          9 e          10 e       
    11 a1         12 e          13 e          14 a1         15 e       
    16 e          17 a1      

             Final eigenvalues
             -----------------

              1      
    1   -1.2045
    2   -0.8658
    3   -0.5603
    4   -0.5603
    5   -0.4751
    6   -0.3394
    7   -0.3394
    8    0.1916
    9    0.2178
   10    0.2178
   11    0.2869
   12    0.3587
   13    0.3587
   14    0.3960
   15    0.8084
   16    0.8084
   17    0.8449

                       ROHF Final Molecular Orbital Analysis
                       -------------------------------------

 Vector    1  Occ=2.000000D+00  E=-1.204476D+00  Symmetry=a1
              MO Center=  2.2D-18,  1.7D-18, -5.0D-01, r^2= 6.7D-01
   Bfn.  Coefficient  Atom+Function         Bfn.  Coefficient  Atom+Function  
  ----- ------------  ---------------      ----- ------------  ---------------
     2      0.457901  1 O  s                  1     -0.395949  1 O  s          
    12     -0.228905  2 C  s          

 Vector    2  Occ=2.000000D+00  E=-8.657686D-01  Symmetry=a1
              MO Center=  1.9D-17,  1.8D-17,  5.9D-01, r^2= 1.4D+00
   Bfn.  Coefficient  Atom+Function         Bfn.  Coefficient  Atom+Function  
  ----- ------------  ---------------      ----- ------------  ---------------
    12      0.426610  2 C  s                  2      0.276907  1 O  s          
    13     -0.194790  2 C  s                  1     -0.185506  1 O  s          
    20     -0.150633  3 H  s                 22     -0.150633  4 H  s          
    24     -0.150633  5 H  s          

 Vector    3  Occ=2.000000D+00  E=-5.602727D-01  Symmetry=e
              MO Center=  1.8D-01,  4.7D-02,  5.1D-01, r^2= 1.5D+00
   Bfn.  Coefficient  Atom+Function         Bfn.  Coefficient  Atom+Function  
  ----- ------------  ---------------      ----- ------------  ---------------
    15      0.355127  2 C  py                20     -0.243409  3 H  s          
    14      0.203753  2 C  px                 4     -0.188187  1 O  py         
    21     -0.181817  3 H  s                 18     -0.180626  2 C  py         
    22      0.178800  4 H  s          

 Vector    4  Occ=2.000000D+00  E=-5.602727D-01  Symmetry=e
              MO Center= -1.8D-01, -4.7D-02,  5.1D-01, r^2= 1.5D+00
   Bfn.  Coefficient  Atom+Function         Bfn.  Coefficient  Atom+Function  
  ----- ------------  ---------------      ----- ------------  ---------------
    14      0.355127  2 C  px                24      0.243762  5 H  s          
    15     -0.203753  2 C  py                 3     -0.188187  1 O  px         
    25      0.182081  5 H  s                 17     -0.180626  2 C  px         
    22     -0.177834  4 H  s          

 Vector    5  Occ=2.000000D+00  E=-4.750739D-01  Symmetry=a1
              MO Center= -8.7D-18,  1.3D-18, -5.0D-01, r^2= 1.4D+00
   Bfn.  Coefficient  Atom+Function         Bfn.  Coefficient  Atom+Function  
  ----- ------------  ---------------      ----- ------------  ---------------
     5      0.450784  1 O  pz                16      0.370212  2 C  pz         
     8      0.357023  1 O  pz                 2     -0.204219  1 O  s          

 Vector    6  Occ=2.000000D+00  E=-3.394443D-01  Symmetry=e
              MO Center= -6.2D-02,  3.3D-02, -5.3D-01, r^2= 1.5D+00
   Bfn.  Coefficient  Atom+Function         Bfn.  Coefficient  Atom+Function  
  ----- ------------  ---------------      ----- ------------  ---------------
     3      0.535011  1 O  px                 6      0.467103  1 O  px         
    25      0.262662  5 H  s                  9      0.168846  1 O  px         
    24      0.161752  5 H  s                 21     -0.158056  3 H  s          
    14      0.153535  2 C  px         

 Vector    7  Occ=2.000000D+00  E=-3.394443D-01  Symmetry=e
              MO Center=  6.2D-02, -3.3D-02, -5.3D-01, r^2= 1.5D+00
   Bfn.  Coefficient  Atom+Function         Bfn.  Coefficient  Atom+Function  
  ----- ------------  ---------------      ----- ------------  ---------------
     4      0.535011  1 O  py                 7      0.467103  1 O  py         
    23      0.242902  4 H  s                 21     -0.212043  3 H  s          
    10      0.168846  1 O  py                15      0.153535  2 C  py         

 Vector    8  Occ=0.000000D+00  E= 1.916204D-01  Symmetry=a1
              MO Center= -2.1D-17, -2.3D-17, -2.1D+00, r^2= 4.1D+00
   Bfn.  Coefficient  Atom+Function         Bfn.  Coefficient  Atom+Function  
  ----- ------------  ---------------      ----- ------------  ---------------
    11      1.420353  1 O  pz                13     -0.657459  2 C  s          
     2      0.530520  1 O  s                 19      0.322728  2 C  pz         
    21     -0.161936  3 H  s                 23     -0.161936  4 H  s          
    25     -0.161936  5 H  s          

 Vector    9  Occ=0.000000D+00  E= 2.178259D-01  Symmetry=e
              MO Center= -8.2D-02,  2.9D-02, -9.6D-01, r^2= 6.0D+00
   Bfn.  Coefficient  Atom+Function         Bfn.  Coefficient  Atom+Function  
  ----- ------------  ---------------      ----- ------------  ---------------
     9      1.202315  1 O  px                17     -0.585162  2 C  px         
    25     -0.358619  5 H  s                  6     -0.330517  1 O  px         
    10     -0.271022  1 O  py                21      0.191767  3 H  s          
    23      0.166853  4 H  s                  3     -0.156187  1 O  px         

 Vector   10  Occ=0.000000D+00  E= 2.178259D-01  Symmetry=e
              MO Center=  8.2D-02, -2.9D-02, -9.6D-01, r^2= 6.0D+00
   Bfn.  Coefficient  Atom+Function         Bfn.  Coefficient  Atom+Function  
  ----- ------------  ---------------      ----- ------------  ---------------
    10      1.202315  1 O  py                18     -0.585162  2 C  py         
     7     -0.330517  1 O  py                23     -0.317766  4 H  s          
    21      0.303381  3 H  s                  9      0.271022  1 O  px         
     4     -0.156187  1 O  py         

 Vector   11  Occ=0.000000D+00  E= 2.869026D-01  Symmetry=a1
              MO Center= -2.2D-16, -2.2D-16,  8.7D-01, r^2= 3.7D+00
   Bfn.  Coefficient  Atom+Function         Bfn.  Coefficient  Atom+Function  
  ----- ------------  ---------------      ----- ------------  ---------------
    13      2.577247  2 C  s                 21     -1.522584  3 H  s          
    23     -1.522584  4 H  s                 25     -1.522584  5 H  s          
    19      1.218141  2 C  pz                 2      0.310026  1 O  s          
    12     -0.258680  2 C  s                 11      0.211383  1 O  pz         
    16     -0.202633  2 C  pz         

 Vector   12  Occ=0.000000D+00  E= 3.586670D-01  Symmetry=e
              MO Center= -3.1D-01,  1.2D-02,  8.2D-01, r^2= 3.4D+00
   Bfn.  Coefficient  Atom+Function         Bfn.  Coefficient  Atom+Function  
  ----- ------------  ---------------      ----- ------------  ---------------
    25      1.997737  5 H  s                 17      1.475013  2 C  px         
    23     -1.193366  4 H  s                 21     -0.804370  3 H  s          
    18     -0.578476  2 C  py                 6     -0.362583  1 O  px         
    14     -0.304743  2 C  px                 9      0.268281  1 O  px         

 Vector   13  Occ=0.000000D+00  E= 3.586670D-01  Symmetry=e
              MO Center=  3.1D-01, -1.2D-02,  8.2D-01, r^2= 3.4D+00
   Bfn.  Coefficient  Atom+Function         Bfn.  Coefficient  Atom+Function  
  ----- ------------  ---------------      ----- ------------  ---------------
    21      1.842384  3 H  s                 23     -1.617797  4 H  s          
    18     -1.475013  2 C  py                17     -0.578476  2 C  px         
     7      0.362583  1 O  py                15      0.304743  2 C  py         
    10     -0.268281  1 O  py                25     -0.224587  5 H  s          

 Vector   14  Occ=0.000000D+00  E= 3.959577D-01  Symmetry=a1
              MO Center= -7.5D-16,  2.6D-16,  4.1D-01, r^2= 3.4D+00
   Bfn.  Coefficient  Atom+Function         Bfn.  Coefficient  Atom+Function  
  ----- ------------  ---------------      ----- ------------  ---------------
    13      1.563188  2 C  s                 19     -1.127560  2 C  pz         
     2     -1.066677  1 O  s                  8     -0.809701  1 O  pz         
    11      0.558116  1 O  pz                21     -0.546212  3 H  s          
    23     -0.546212  4 H  s                 25     -0.546212  5 H  s          
     5     -0.287701  1 O  pz                12     -0.222291  2 C  s          

 Vector   15  Occ=0.000000D+00  E= 8.084177D-01  Symmetry=e
              MO Center=  1.5D-01,  1.6D-01,  4.7D-01, r^2= 2.6D+00
   Bfn.  Coefficient  Atom+Function         Bfn.  Coefficient  Atom+Function  
  ----- ------------  ---------------      ----- ------------  ---------------
    18     -1.375739  2 C  py                17      1.331244  2 C  px         
    15     -0.592666  2 C  py                14      0.573497  2 C  px         
    22     -0.386328  4 H  s                 24      0.379064  5 H  s          
    23     -0.365746  4 H  s                 25      0.358869  5 H  s          
    10      0.323450  1 O  py                 9     -0.312989  1 O  px         

 Vector   16  Occ=0.000000D+00  E= 8.084177D-01  Symmetry=e
              MO Center= -1.5D-01, -1.6D-01,  4.7D-01, r^2= 2.6D+00
   Bfn.  Coefficient  Atom+Function         Bfn.  Coefficient  Atom+Function  
  ----- ------------  ---------------      ----- ------------  ---------------
    17      1.375739  2 C  px                18      1.331244  2 C  py         
    14      0.592666  2 C  px                15      0.573497  2 C  py         
    20     -0.441899  3 H  s                 21     -0.418356  3 H  s          
     9     -0.323450  1 O  px                10     -0.312989  1 O  py         
    24      0.227240  5 H  s                 22      0.214659  4 H  s          

 Vector   17  Occ=0.000000D+00  E= 8.448534D-01  Symmetry=a1
              MO Center= -6.9D-18,  1.9D-17,  3.0D-01, r^2= 1.4D+00
   Bfn.  Coefficient  Atom+Function         Bfn.  Coefficient  Atom+Function  
  ----- ------------  ---------------      ----- ------------  ---------------
    16      1.070346  2 C  pz                19      1.042920  2 C  pz         
    13      0.491413  2 C  s                  5     -0.391803  1 O  pz         
    12     -0.328698  2 C  s                  2      0.281512  1 O  s          
    21     -0.282088  3 H  s                 23     -0.282088  4 H  s          
    25     -0.282088  5 H  s                  8     -0.249932  1 O  pz         


 center of mass
 --------------
 x =   0.00000000 y =   0.00000000 z =  -0.21030144

 moments of inertia (a.u.)
 ------------------
          69.754960309982           0.000000000000           0.000000000000
           0.000000000000          69.754960309982           0.000000000000
           0.000000000000           0.000000000000          10.945710726763

  Mulliken analysis of the total density
  --------------------------------------

    Atom       Charge   Shell Charges
 -----------   ------   -------------------------------------------------------
    1 O    6     7.13   0.83  1.06  2.68  2.23  0.33
    2 C    4     4.09   0.89  0.33  1.98  0.89
    3 H    1     0.93   0.56  0.37
    4 H    1     0.93   0.56  0.37
    5 H    1     0.93   0.56  0.37

       Multipole analysis of the density wrt the origin
       ------------------------------------------------

     L   x y z        total         open         nuclear
     -   - - -        -----         ----         -------
     0   0 0 0     -1.000000      0.000000     13.000000

     1   1 0 0      0.000000      0.000000      0.000000
     1   0 1 0      0.000000      0.000000      0.000000
     1   0 0 1      2.201479      0.000000      0.547431

     2   2 0 0    -11.867886      0.000000      5.430363
     2   1 1 0      0.000000      0.000000      0.000000
[...]
    11      1.420798  1 O  pz                13     -0.645645  2 C  s          
     2      0.529848  1 O  s                 19      0.327222  2 C  pz         
    21     -0.167376  3 H  s                 23     -0.167376  4 H  s          
    25     -0.167376  5 H  s          

 Vector    9  Occ=0.000000D+00  E= 2.180462D-01  Symmetry=e
              MO Center= -8.2D-02, -3.0D-02, -9.6D-01, r^2= 5.9D+00
   Bfn.  Coefficient  Atom+Function         Bfn.  Coefficient  Atom+Function  
  ----- ------------  ---------------      ----- ------------  ---------------
     9      1.039798  1 O  px                10     -0.660374  1 O  py         
    17     -0.505440  2 C  px                25     -0.342017  5 H  s          
    18      0.321004  2 C  py                 6     -0.287534  1 O  px         
    23      0.263941  4 H  s                  7      0.182612  1 O  py         

 Vector   10  Occ=0.000000D+00  E= 2.180462D-01  Symmetry=e
              MO Center=  8.2D-02,  3.0D-02, -9.6D-01, r^2= 5.9D+00
   Bfn.  Coefficient  Atom+Function         Bfn.  Coefficient  Atom+Function  
  ----- ------------  ---------------      ----- ------------  ---------------
    10      1.039798  1 O  py                 9      0.660374  1 O  px         
    18     -0.505440  2 C  py                21      0.349850  3 H  s          
    17     -0.321004  2 C  px                 7     -0.287534  1 O  py         
    23     -0.242540  4 H  s                  6     -0.182612  1 O  px         

 Vector   11  Occ=0.000000D+00  E= 2.871612D-01  Symmetry=a1
              MO Center= -1.1D-16,  5.6D-16,  8.7D-01, r^2= 3.6D+00
   Bfn.  Coefficient  Atom+Function         Bfn.  Coefficient  Atom+Function  
  ----- ------------  ---------------      ----- ------------  ---------------
    13      2.574918  2 C  s                 21     -1.516582  3 H  s          
    23     -1.516582  4 H  s                 25     -1.516582  5 H  s          
    19      1.205963  2 C  pz                 2      0.306905  1 O  s          
    12     -0.258162  2 C  s                 16     -0.202577  2 C  pz         
    11      0.200949  1 O  pz         

 Vector   12  Occ=0.000000D+00  E= 3.586779D-01  Symmetry=e
              MO Center= -1.9D-01, -2.4D-01,  8.2D-01, r^2= 3.4D+00
   Bfn.  Coefficient  Atom+Function         Bfn.  Coefficient  Atom+Function  
  ----- ------------  ---------------      ----- ------------  ---------------
    23      1.807848  4 H  s                 25     -1.685585  5 H  s          
    18      1.192796  2 C  py                17     -1.056451  2 C  px         
     7     -0.289897  1 O  py                 6      0.256760  1 O  px         
    15     -0.243786  2 C  py                10      0.217055  1 O  py         
    14      0.215920  2 C  px                 9     -0.192244  1 O  px         

 Vector   13  Occ=0.000000D+00  E= 3.586779D-01  Symmetry=e
              MO Center=  1.9D-01,  2.4D-01,  8.2D-01, r^2= 3.4D+00
   Bfn.  Coefficient  Atom+Function         Bfn.  Coefficient  Atom+Function  
  ----- ------------  ---------------      ----- ------------  ---------------
    21      2.016934  3 H  s                 17     -1.192796  2 C  px         
    25     -1.114350  5 H  s                 18     -1.056451  2 C  py         
    23     -0.902585  4 H  s                  6      0.289897  1 O  px         
     7      0.256760  1 O  py                14      0.243786  2 C  px         
     9     -0.217055  1 O  px                15      0.215920  2 C  py         

 Vector   14  Occ=0.000000D+00  E= 3.960100D-01  Symmetry=a1
              MO Center=  8.5D-16,  7.2D-16,  4.1D-01, r^2= 3.5D+00
   Bfn.  Coefficient  Atom+Function         Bfn.  Coefficient  Atom+Function  
  ----- ------------  ---------------      ----- ------------  ---------------
    13      1.584913  2 C  s                 19     -1.115027  2 C  pz         
     2     -1.057112  1 O  s                  8     -0.809973  1 O  pz         
    11      0.562466  1 O  pz                21     -0.565229  3 H  s          
    23     -0.565229  4 H  s                 25     -0.565229  5 H  s          
     5     -0.289579  1 O  pz                12     -0.227158  2 C  s          

 Vector   15  Occ=0.000000D+00  E= 8.069945D-01  Symmetry=e
              MO Center=  2.0D-01,  1.0D-01,  4.8D-01, r^2= 2.6D+00
   Bfn.  Coefficient  Atom+Function         Bfn.  Coefficient  Atom+Function  
  ----- ------------  ---------------      ----- ------------  ---------------
    17      1.549118  2 C  px                18     -1.127406  2 C  py         
    14      0.665729  2 C  px                15     -0.484499  2 C  py         
    24      0.412394  5 H  s                 25      0.393015  5 H  s          
     9     -0.362141  1 O  px                22     -0.343622  4 H  s          
    23     -0.327474  4 H  s                 10      0.263556  1 O  py         

 Vector   16  Occ=0.000000D+00  E= 8.069945D-01  Symmetry=e
              MO Center= -2.0D-01, -1.0D-01,  4.8D-01, r^2= 2.6D+00
   Bfn.  Coefficient  Atom+Function         Bfn.  Coefficient  Atom+Function  
  ----- ------------  ---------------      ----- ------------  ---------------
    18      1.549118  2 C  py                17      1.127406  2 C  px         
    15      0.665729  2 C  py                14      0.484499  2 C  px         
    20     -0.436486  3 H  s                 21     -0.415974  3 H  s          
    10     -0.362141  1 O  py                22      0.277802  4 H  s          
     9     -0.263556  1 O  px                23      0.264747  4 H  s          

 Vector   17  Occ=0.000000D+00  E= 8.423997D-01  Symmetry=a1
              MO Center= -4.4D-17, -3.7D-18,  3.1D-01, r^2= 1.4D+00
   Bfn.  Coefficient  Atom+Function         Bfn.  Coefficient  Atom+Function  
  ----- ------------  ---------------      ----- ------------  ---------------
    16      1.070124  2 C  pz                19      1.040739  2 C  pz         
    13      0.487933  2 C  s                  5     -0.389350  1 O  pz         
    12     -0.321830  2 C  s                  2      0.284017  1 O  s          
    21     -0.278768  3 H  s                 23     -0.278768  4 H  s          
    25     -0.278768  5 H  s                  8     -0.244497  1 O  pz         


 center of mass
 --------------
 x =   0.00000000 y =   0.00000000 z =  -0.20500806

 moments of inertia (a.u.)
 ------------------
          69.877343555792           0.000000000000           0.000000000000
           0.000000000000          69.877343555792           0.000000000000
           0.000000000000           0.000000000000          10.971880099603

  Mulliken analysis of the total density
  --------------------------------------

    Atom       Charge   Shell Charges
 -----------   ------   -------------------------------------------------------
    1 O    6     7.13   0.83  1.06  2.68  2.23  0.33
    2 C    4     4.09   0.89  0.33  1.98  0.89
    3 H    1     0.93   0.56  0.36
    4 H    1     0.93   0.56  0.36
    5 H    1     0.93   0.56  0.36

       Multipole analysis of the density wrt the origin
       ------------------------------------------------

     L   x y z        total         open         nuclear
     -   - - -        -----         ----         -------
     0   0 0 0     -1.000000      0.000000     13.000000

     1   1 0 0      0.000000      0.000000      0.000000
     1   0 1 0      0.000000      0.000000      0.000000
     1   0 0 1      2.209466      0.000000      0.595399

     2   2 0 0    -11.855912      0.000000      5.443346
     2   1 1 0      0.000000      0.000000      0.000000
     2   1 0 1      0.000000      0.000000      0.000000
     2   0 2 0    -11.855912      0.000000      5.443346
     2   0 1 1      0.000000      0.000000      0.000000
     2   0 0 2    -15.720620      0.000000     30.728392


 Parallel integral file used       4 records with       0 large values

                              NWChem Gradients Module
                              -----------------------



  wavefunction    =   RHF     

  Using symmetry


                         RHF ENERGY GRADIENTS

    atom               coordinates                        gradient
                 x          y          z           x          y          z
   1 o       0.000000   0.000000  -1.584963    0.000000   0.000000   0.000207
   2 c       0.000000   0.000000   1.105334    0.000000   0.000000   0.000144
   3 h       1.347015   1.347015   1.894614   -0.000017  -0.000017  -0.000117
   4 h       0.493042  -1.840056   1.894614   -0.000006   0.000023  -0.000117
   5 h      -1.840056   0.493042   1.894614    0.000023  -0.000006  -0.000117

                 ----------------------------------------
                 |  Time  |  1-e(secs)   |  2-e(secs)   |
                 ----------------------------------------
                 |  CPU   |       0.02   |       0.04   |
                 ----------------------------------------
                 |  WALL  |       0.02   |       0.04   |
                 ----------------------------------------

  Step       Energy      Delta E   Gmax     Grms     Xrms     Xmax   Walltime
  ---- ---------------- -------- -------- -------- -------- -------- --------
@    4     -23.04345182 -1.0D-07  0.00021  0.00008  0.00029  0.00068     65.1
                                     ok       ok       ok       ok  



                                Z-matrix (autoz)
                                -------- 

 Units are Angstrom for bonds and degrees for angles

      Type          Name      I     J     K     L     M      Value     Gradient
      ----------- --------  ----- ----- ----- ----- ----- ---------- ----------
    1 Stretch                  1     2                       1.42364   -0.00021
    2 Stretch                  2     3                       1.09117   -0.00007
    3 Stretch                  2     4                       1.09117   -0.00007
    4 Stretch                  2     5                       1.09117   -0.00007
    5 Bend                     1     2     3               112.50559   -0.00005
    6 Bend                     1     2     4               112.50559   -0.00005
    7 Bend                     1     2     5               112.50559   -0.00005
    8 Bend                     3     2     4               106.27373    0.00005
    9 Bend                     3     2     5               106.27373    0.00005
   10 Bend                     4     2     5               106.27373    0.00005


      ----------------------
      Optimization converged
      ----------------------


  Step       Energy      Delta E   Gmax     Grms     Xrms     Xmax   Walltime
  ---- ---------------- -------- -------- -------- -------- -------- --------
@    4     -23.04345182 -1.0D-07  0.00021  0.00008  0.00029  0.00068     65.1
                                     ok       ok       ok       ok  



                                Z-matrix (autoz)
                                -------- 

 Units are Angstrom for bonds and degrees for angles

      Type          Name      I     J     K     L     M      Value     Gradient
      ----------- --------  ----- ----- ----- ----- ----- ---------- ----------
    1 Stretch                  1     2                       1.42364   -0.00021
    2 Stretch                  2     3                       1.09117   -0.00007
    3 Stretch                  2     4                       1.09117   -0.00007
    4 Stretch                  2     5                       1.09117   -0.00007
    5 Bend                     1     2     3               112.50559   -0.00005
    6 Bend                     1     2     4               112.50559   -0.00005
    7 Bend                     1     2     5               112.50559   -0.00005
    8 Bend                     3     2     4               106.27373    0.00005
    9 Bend                     3     2     5               106.27373    0.00005
   10 Bend                     4     2     5               106.27373    0.00005



                         Geometry "geometry" -> "geometry"
                         ---------------------------------

 Output coordinates in angstroms (scale by  1.889725989 to convert to a.u.)

  No.       Tag          Charge          X              Y              Z
 ---- ---------------- ---------- -------------- -------------- --------------
    1 o                    8.0000     0.00000000     0.00000000    -0.83872644
    2 c                    6.0000     0.00000000     0.00000000     0.58491746
    3 h                    1.0000     0.71280954     0.71280954     1.00258688
    4 h                    1.0000     0.26090640    -0.97371594     1.00258688
    5 h                    1.0000    -0.97371594     0.26090640     1.00258688

      Atomic Mass 
      ----------- 

      o                 15.994910
      c                 12.000000
      h                  1.007825


 Effective nuclear repulsion energy (a.u.)      33.5305495219

            Nuclear Dipole moment (a.u.) 
            ----------------------------
        X                 Y               Z
 ---------------- ---------------- ----------------
     0.0000000000     0.0000000000    -0.3638594649

      Symmetry information
      --------------------

 Group name             C3v       
 Group number             17
 Group order               6
 No. of unique centers     3

      Symmetry unique atoms

     1    2    3


                Final and change from initial internal coordinates
                --------------------------------------------------



                                Z-matrix (autoz)
                                -------- 

 Units are Angstrom for bonds and degrees for angles

      Type          Name      I     J     K     L     M      Value       Change
      ----------- --------  ----- ----- ----- ----- ----- ---------- ----------
    1 Stretch                  1     2                       1.42364    0.07023
    2 Stretch                  2     3                       1.09117   -0.00980
    3 Stretch                  2     4                       1.09117   -0.00980
    4 Stretch                  2     5                       1.09117   -0.00980
    5 Bend                     1     2     3               112.50559   -0.81239
    6 Bend                     1     2     4               112.50559   -0.81239
    7 Bend                     1     2     5               112.50559   -0.81239
    8 Bend                     3     2     4               106.27373    0.90835
    9 Bend                     3     2     5               106.27373    0.90835
   10 Bend                     4     2     5               106.27373    0.90835

 ==============================================================================
                                internuclear distances
 ------------------------------------------------------------------------------
       center one      |      center two      | atomic units |  angstroms
 ------------------------------------------------------------------------------
    2 c                |   1 o                |     2.69030  |     1.42364
    3 h                |   2 c                |     2.06200  |     1.09117
    4 h                |   2 c                |     2.06200  |     1.09117
    5 h                |   2 c                |     2.06200  |     1.09117
 ------------------------------------------------------------------------------
                         number of included internuclear distances:          4
 ==============================================================================



 ==============================================================================
                                 internuclear angles
 ------------------------------------------------------------------------------
        center 1       |       center 2       |       center 3       |  degrees
 ------------------------------------------------------------------------------
    1 o                |   2 c                |   3 h                |   112.51
    1 o                |   2 c                |   4 h                |   112.51
    1 o                |   2 c                |   5 h                |   112.51
    3 h                |   2 c                |   4 h                |   106.27
    3 h                |   2 c                |   5 h                |   106.27
    4 h                |   2 c                |   5 h                |   106.27
 ------------------------------------------------------------------------------
                            number of included internuclear angles:          6
 ==============================================================================




 Task  times  cpu:       59.3s     wall:       64.1s
 Summary of allocated global arrays
-----------------------------------
  No active global arrays



                         GA Statistics for process    0
                         ------------------------------

       create   destroy   get      put      acc     scatter   gather  read&inc
calls: 5889     5889     4.02e+04 1.07e+04 3.21e+04    0        0     2998     
number of processes/call 1.19e+00 1.22e+00 1.11e+00 0.00e+00 0.00e+00
bytes total:             2.41e+07 1.35e+07 9.26e+06 0.00e+00 0.00e+00 2.40e+04
bytes remote:            4.16e+06 1.33e+06 2.95e+06 0.00e+00 0.00e+00 0.00e+00
Max memory consumed for GA by this process: 44432 bytes
MA_summarize_allocated_blocks: starting scan ...
MA_summarize_allocated_blocks: scan completed: 0 heap blocks, 0 stack blocks
MA usage statistics:

	allocation statistics:
					      heap	     stack
					      ----	     -----
	current number of blocks	         0	         0
	maximum number of blocks	        43	        32
	current total bytes		         0	         0
	maximum total bytes		   1084736	  22509528
	maximum total K-bytes		      1085	     22510
	maximum total M-bytes		         2	        23


                                NWChem Input Module
                                -------------------





                                     CITATION
                                     --------
                Please cite the following reference when publishing
                           results obtained with NWChem:

                 M. Valiev, E.J. Bylaska, N. Govind, K. Kowalski,
              T.P. Straatsma, H.J.J. van Dam, D. Wang, J. Nieplocha,
                        E. Apra, T.L. Windus, W.A. de Jong
                 "NWChem: a comprehensive and scalable open-source
                  solution for large scale molecular simulations"
                      Comput. Phys. Commun. 181, 1477 (2010)
                           doi:10.1016/j.cpc.2010.04.018

                              AUTHORS & CONTRIBUTORS
                              ----------------------
          E. Apra, E. J. Bylaska, W. A. de Jong, N. Govind, K. Kowalski,
       T. P. Straatsma, M. Valiev, H. J. J. van Dam, D. Wang, T. L. Windus,
        J. Hammond, J. Autschbach, K. Bhaskaran-Nair, J. Brabec, K. Lopata,
     F. Aquino, S. Hirata, M. T. Hackler, T. Risthaus, M. Malagoli, J. Mullin,
        P. Nichols, R. Peverati, J. Pittner, Y. Zhao, P.-D. Fan, A. Fonari,
     R. J. Harrison, M. Dupuis, D. Silverstein, D. M. A. Smith, J. Nieplocha,
       V. Tipparaju, M. Krishnan, B. E. Van Kuiken,  A. Vazquez-Mayagoitia,
        L. Jensen, M. Swart, Q. Wu, T. Van Voorhis, A. A. Auer, M. Nooijen,
      L. D. Crosby, E. Brown, G. Cisneros, G. I. Fann, H. Fruchtl, J. Garza,
   K. Hirao, R. Kendall, J. A. Nichols, K. Tsemekhman, K. Wolinski, J. Anchell,
       D. Bernholdt, P. Borowski, T. Clark, D. Clerc, H. Dachsel, M. Deegan,
        K. Dyall, D. Elwood, E. Glendening, M. Gutowski, A. Hess, J. Jaffe,
   B. Johnson, J. Ju, R. Kobayashi, R. Kutteh, Z. Lin, R. Littlefield, X. Long,
        B. Meng,T. Nakajima, S. Niu, L. Pollack, M. Rosing, K. Glaesemann,
      G. Sandrone, M. Stave, H. Taylor, G. Thomas, J. H. van Lenthe, A. Wong,
                                     Z.Zhang.

 Total times  cpu:       59.3s     wall:       65.1s
