 argument  1 = ./CF3COOmWat_SMD_M062X.nw



============================== echo of input deck ==============================
# COSMO-SMD solvation results:
#             internal energy in gas <Psi(g)|H|Psi(g)> =      -526.0634601248
#    total free energy in solvent including G(SMD-CDS) =      -526.1621179269
#                       G(SMD-CDS) energy contribution =         0.0086935496 (    5.46 kcal/mol)
#     1 M fixed-concentration free energy of solvation =        -0.0986578020 (  -61.91 kcal/mol)
#
echo 'SMD/M06-2X/6-31G(d) solvation energy - CF3COO- in water'

start CF3COOmWat_SMD_M062X

charge -1

geometry nocenter
 C    0.512211   0.000000  -0.012117
 C   -1.061796   0.000000  -0.036672
 O   -1.547400   1.150225  -0.006609
 O   -1.547182  -1.150320  -0.006608
 F    1.061911   1.087605  -0.610341
 F    1.061963  -1.086426  -0.612313
 F    0.993255  -0.001122   1.266928
symmetry c1
end

basis
 * library 6-31G*
end

dft
 XC m06-2x
end

cosmo
 do_cosmo_smd true
 solvent h2o
end

task dft energy
================================================================================


                                         
                                         


             Northwest Computational Chemistry Package (NWChem) 7.0.1
             --------------------------------------------------------


                    Environmental Molecular Sciences Laboratory
                       Pacific Northwest National Laboratory
                                Richland, WA 99352

                              Copyright (c) 1994-2020
                       Pacific Northwest National Laboratory
                            Battelle Memorial Institute

             NWChem is an open-source computational chemistry package
                        distributed under the terms of the
                      Educational Community License (ECL) 2.0
             A copy of the license is included with this distribution
                              in the LICENSE.TXT file

                                  ACKNOWLEDGMENT
                                  --------------

            This software and its documentation were developed at the
            EMSL at Pacific Northwest National Laboratory, a multiprogram
            national laboratory, operated for the U.S. Department of Energy
            by Battelle under Contract Number DE-AC05-76RL01830. Support
            for this work was provided by the Department of Energy Office
            of Biological and Environmental Research, Office of Basic
            Energy Sciences, and the Office of Advanced Scientific Computing.


           Job information
           ---------------

    hostname        = WE41476
    program         = nwchem
    date            = Thu Nov 11 14:55:00 2021

    compiled        = Thu_Nov_11_13:51:38_2021
    source          = /Users/meji656/Sources/nwchem
    nwchem branch   = 7.0.0
    nwchem revision = nwchem_on_git-3012-g75ff49f32d
    ga revision     = 5.8.0
    use scalapack   = F
    input           = ./CF3COOmWat_SMD_M062X.nw
    prefix          = CF3COOmWat_SMD_M062X.
    data base       = ./CF3COOmWat_SMD_M062X.db
    status          = startup
    nproc           =        4
    time left       =     -1s



           Memory information
           ------------------

    heap     =   13107196 doubles =    100.0 Mbytes
    stack    =   13107201 doubles =    100.0 Mbytes
    global   =   26214400 doubles =    200.0 Mbytes (distinct from heap & stack)
    total    =   52428797 doubles =    400.0 Mbytes
    verify   = yes
    hardfail = no 


           Directory information
           ---------------------

  0 permanent = .
  0 scratch   = .




                                NWChem Input Module
                                -------------------



 Scaling coordinates for geometry "geometry" by  1.889725989
 (inverse scale =  0.529177249)

 Turning off AUTOSYM since
 SYMMETRY directive was detected!


          ------
          auto-z
          ------
  no constraints, skipping    0.0000000000000000     
  no constraints, skipping    0.0000000000000000     


                             Geometry "geometry" -> ""
                             -------------------------

 Output coordinates in angstroms (scale by  1.889725989 to convert to a.u.)

  No.       Tag          Charge          X              Y              Z
 ---- ---------------- ---------- -------------- -------------- --------------
    1 C                    6.0000     0.51221100     0.00000000    -0.01211700
    2 C                    6.0000    -1.06179600     0.00000000    -0.03667200
    3 O                    8.0000    -1.54740000     1.15022500    -0.00660900
    4 O                    8.0000    -1.54718200    -1.15032000    -0.00660800
    5 F                    9.0000     1.06191100     1.08760500    -0.61034100
    6 F                    9.0000     1.06196300    -1.08642600    -0.61231300
    7 F                    9.0000     0.99325500    -0.00112200     1.26692800

      Atomic Mass 
      ----------- 

      C                 12.000000
      O                 15.994910
      F                 18.998400


 Effective nuclear repulsion energy (a.u.)     321.4092088026

            Nuclear Dipole moment (a.u.) 
            ----------------------------
        X                 Y               Z
 ---------------- ---------------- ----------------
    -0.0000094486    -0.0004667623    -0.0000075589



                                Z-matrix (autoz)
                                -------- 

 Units are Angstrom for bonds and degrees for angles

      Type          Name      I     J     K     L     M      Value
      ----------- --------  ----- ----- ----- ----- ----- ----------
    1 Stretch                  1     2                       1.57420
    2 Stretch                  1     5                       1.35754
    3 Stretch                  1     6                       1.35749
    4 Stretch                  1     7                       1.36651
    5 Stretch                  2     3                       1.24889
    6 Stretch                  2     4                       1.24890
    7 Bend                     1     2     3               112.85528
    8 Bend                     1     2     4               112.84438
    9 Bend                     2     1     5               113.45317
   10 Bend                     2     1     6               113.45511
   11 Bend                     2     1     7               111.50484
   12 Bend                     3     2     4               134.15514
   13 Bend                     5     1     6               106.40122
   14 Bend                     5     1     7               105.69852
   15 Bend                     6     1     7               105.70101
   16 Torsion                  3     2     1     5         -31.02915
   17 Torsion                  3     2     1     6        -152.61313
   18 Torsion                  3     2     1     7          88.17658
   19 Torsion                  4     2     1     5         152.71853
   20 Torsion                  4     2     1     6          31.13456
   21 Torsion                  4     2     1     7         -88.07573


            XYZ format geometry
            -------------------
     7
 geometry
 C                     0.51221100     0.00000000    -0.01211700
 C                    -1.06179600     0.00000000    -0.03667200
 O                    -1.54740000     1.15022500    -0.00660900
 O                    -1.54718200    -1.15032000    -0.00660800
 F                     1.06191100     1.08760500    -0.61034100
 F                     1.06196300    -1.08642600    -0.61231300
 F                     0.99325500    -0.00112200     1.26692800

 ==============================================================================
                                internuclear distances
 ------------------------------------------------------------------------------
       center one      |      center two      | atomic units |  angstroms
 ------------------------------------------------------------------------------
    2 C                |   1 C                |     2.97480  |     1.57420
    3 O                |   2 C                |     2.36006  |     1.24889
    4 O                |   2 C                |     2.36007  |     1.24890
    5 F                |   1 C                |     2.56539  |     1.35754
    6 F                |   1 C                |     2.56529  |     1.35749
    7 F                |   1 C                |     2.58234  |     1.36651
 ------------------------------------------------------------------------------
                         number of included internuclear distances:          6
 ==============================================================================



 ==============================================================================
                                 internuclear angles
 ------------------------------------------------------------------------------
        center 1       |       center 2       |       center 3       |  degrees
 ------------------------------------------------------------------------------
    2 C                |   1 C                |   5 F                |   113.45
    2 C                |   1 C                |   6 F                |   113.46
    2 C                |   1 C                |   7 F                |   111.50
    5 F                |   1 C                |   6 F                |   106.40
    5 F                |   1 C                |   7 F                |   105.70
    6 F                |   1 C                |   7 F                |   105.70
    1 C                |   2 C                |   3 O                |   112.86
    1 C                |   2 C                |   4 O                |   112.84
    3 O                |   2 C                |   4 O                |   134.16
 ------------------------------------------------------------------------------
                            number of included internuclear angles:          9
 ==============================================================================





 Summary of "ao basis" -> "" (cartesian)
 ------------------------------------------------------------------------------
       Tag                 Description            Shells   Functions and Types
 ---------------- ------------------------------  ------  ---------------------
 *                           6-31G*                   on all atoms 



                                 NWChem DFT Module
                                 -----------------


                      Basis "ao basis" -> "ao basis" (cartesian)
                      -----
  C (Carbon)
  ----------
            Exponent  Coefficients 
       -------------- ---------------------------------------------------------
  1 S  3.04752490E+03  0.001835
  1 S  4.57369510E+02  0.014037
  1 S  1.03948690E+02  0.068843
  1 S  2.92101550E+01  0.232184
  1 S  9.28666300E+00  0.467941
  1 S  3.16392700E+00  0.362312

  2 S  7.86827240E+00 -0.119332
  2 S  1.88128850E+00 -0.160854
  2 S  5.44249300E-01  1.143456

  3 P  7.86827240E+00  0.068999
  3 P  1.88128850E+00  0.316424
  3 P  5.44249300E-01  0.744308

  4 S  1.68714400E-01  1.000000

  5 P  1.68714400E-01  1.000000

  6 D  8.00000000E-01  1.000000

  O (Oxygen)
  ----------
            Exponent  Coefficients 
       -------------- ---------------------------------------------------------
  1 S  5.48467170E+03  0.001831
  1 S  8.25234950E+02  0.013950
  1 S  1.88046960E+02  0.068445
  1 S  5.29645000E+01  0.232714
  1 S  1.68975700E+01  0.470193
  1 S  5.79963530E+00  0.358521

  2 S  1.55396160E+01 -0.110778
  2 S  3.59993360E+00 -0.148026
  2 S  1.01376180E+00  1.130767

  3 P  1.55396160E+01  0.070874
  3 P  3.59993360E+00  0.339753
  3 P  1.01376180E+00  0.727159

  4 S  2.70005800E-01  1.000000

  5 P  2.70005800E-01  1.000000

  6 D  8.00000000E-01  1.000000

  F (Fluorine)
  ------------
            Exponent  Coefficients 
       -------------- ---------------------------------------------------------
  1 S  7.00171309E+03  0.001820
  1 S  1.05136609E+03  0.013916
  1 S  2.39285690E+02  0.068405
  1 S  6.73974453E+01  0.233186
  1 S  2.15199573E+01  0.471267
  1 S  7.40310130E+00  0.356619

  2 S  2.08479528E+01 -0.108507
  2 S  4.80830834E+00 -0.146452
  2 S  1.34406986E+00  1.128689

  3 P  2.08479528E+01  0.071629
  3 P  4.80830834E+00  0.345912
  3 P  1.34406986E+00  0.722470

  4 S  3.58151393E-01  1.000000

  5 P  3.58151393E-01  1.000000

  6 D  8.00000000E-01  1.000000



 Summary of "ao basis" -> "ao basis" (cartesian)
 ------------------------------------------------------------------------------
       Tag                 Description            Shells   Functions and Types
 ---------------- ------------------------------  ------  ---------------------
 C                           6-31G*                  6       15   3s2p1d
 O                           6-31G*                  6       15   3s2p1d
 F                           6-31G*                  6       15   3s2p1d




 Summary of "ao basis" -> "ao basis" (cartesian)
 ------------------------------------------------------------------------------
       Tag                 Description            Shells   Functions and Types
 ---------------- ------------------------------  ------  ---------------------
 C                           6-31G*                  6       15   3s2p1d
 O                           6-31G*                  6       15   3s2p1d
 F                           6-31G*                  6       15   3s2p1d



 solvent parameters
 solvname_short: h2o     
 solvname_long:  water                              
 dielec:       78.4000
 dielecinf:     1.7769
 aqueous SMD model solvent descriptors
 dielec:       78.4000
 sola:          0.8200

          ---------------
          -cosmo- solvent
          ---------------
 Cosmo: York-Karplus, doi: 10.1021/jp992097l
 dielectric constant -eps-     =  78.40
 screen = (eps-1)/(eps    )    =   0.98724
 surface charge correction     = lagrangian

 solvent accessible surface
 --------------------------

 ---------- ATOMIC COORDINATES (A.U.) ------------ VDWR(ANG.) --
     1    0.96793844    0.00000000   -0.02289781     1.850
     2   -2.00650350    0.00000000   -0.06930003     1.850
     3   -2.92416199    2.17361008   -0.01248920     1.520
     4   -2.92375003   -2.17378960   -0.01248731     1.520
     5    2.00672081    2.05527543   -1.15337725     1.730
     6    2.00681908   -2.05304745   -1.15710379     1.730
     7    1.87697979   -0.00212027    2.39414677     1.730
 number of segments per atom =        128
 number of   points per atom =        128
 atom (   nspa,  nppa )
 ----------------------
    1 (     10,     0 )       0
    2 (     48,     0 )       0
    3 (     76,     0 )       0
    4 (     76,     0 )       0
    5 (     77,     0 )       0
    6 (     77,     0 )       0
    7 (     80,     0 )       0
 number of -cosmo- surface points =      444
 molecular surface =    110.423 angstrom**2
 molecular volume  =     62.075 angstrom**3
 -lineq- algorithm             =   0
 -bem- low  level              =   3
 -bem- from -octahedral-
 gaussian surface charge width =   4.50000
 degree of switching           =   1.00000
 switching function tolerance  =   0.00010
 atomic radii = 
 --------------
    1  6.000  1.850
    2  6.000  1.850
    3  8.000  1.520
    4  8.000  1.520
    5  9.000  1.730
    6  9.000  1.730
    7  9.000  1.730
 ...... end of -cosmo- initialization ......


 G(SMD-CDS) energy (kcal/mol)  =     5.455
 SMD-CDS SASA (angstrom**2)    =   128.444

  Caching 1-el integrals 

            General Information
            -------------------
          SCF calculation type: DFT
          Wavefunction type:  closed shell.
          No. of atoms     :     7
          No. of electrons :    56
           Alpha electrons :    28
            Beta electrons :    28
          Charge           :    -1
          Spin multiplicity:     1
          Use of symmetry is: off; symmetry adaption is: off
          Maximum number of iterations:  50
          AO basis - number of functions:   105
                     number of shells:    42
          Convergence on energy requested:  1.00D-06
          Convergence on density requested:  1.00D-05
          Convergence on gradient requested:  5.00D-04

              XC Information
              --------------
                       M06-2X Method XC Functional
                     Hartree-Fock (Exact) Exchange  0.540          
                        M06-2X Exchange Functional  1.000          
                      M06-2X Correlation Potential  1.000          

             Grid Information
             ----------------
          Grid used for XC integration:  medium    
          Radial quadrature: Mura-Knowles        
          Angular quadrature: Lebedev. 
          Tag              B.-S. Rad. Rad. Pts. Rad. Cut. Ang. Pts.
          ---              ---------- --------- --------- ---------
          C                   0.70       49           7.0       434
          O                   0.60       49           8.0       434
          F                   0.50       49           8.0       434
          Grid pruning is: on 
          Number of quadrature shells:   343
          Spatial weights used:  Erf1

          Convergence Information
          -----------------------
          Convergence aids based upon iterative change in 
          total energy or number of iterations. 
          Levelshifting, if invoked, occurs when the 
          HOMO/LUMO gap drops below (HL_TOL):  1.00D-02
          DIIS, if invoked, will attempt to extrapolate 
          using up to (NFOCK): 10 stored Fock matrices.

                    Damping( 0%)  Levelshifting(0.5)       DIIS
                  --------------- ------------------- ---------------
          dE  on:    start            ASAP                start   
          dE off:    2 iters         50 iters            50 iters 


      Screening Tolerance Information
      -------------------------------
          Density screening/tol_rho:  1.00D-10
          AO Gaussian exp screening on grid/accAOfunc:  14
          CD Gaussian exp screening on grid/accCDfunc:  20
          XC Gaussian exp screening on grid/accXCfunc:  20
          Schwarz screening/accCoul:  1.00D-08


      Superposition of Atomic Density Guess
      -------------------------------------

 Sum of atomic energies:        -522.94620883

 Renormalizing density from      55.00 to     56

      Non-variational initial energy
      ------------------------------

 Total energy =    -530.568732
 1-e energy   =   -1390.737385
 2-e energy   =     538.759444
 HOMO         =       0.003546
 LUMO         =       0.351646

   Time after variat. SCF:      0.5
   Time prior to 1st pass:      0.5

 Integral file          = ./CF3COOmWat_SMD_M062X.aoints.0
 Record size in doubles =  65536        No. of integs per rec  =  43688
 Max. records in memory =    123        Max. records in file   = 120043
 No. of bits per label  =      8        No. of bits per value  =     64


 #quartets = 3.264D+05 #integrals = 1.251D+07 #direct =  0.0% #cached =100.0%


File balance: exchanges=     3  moved=    60  time=   0.0


 Grid_pts file          = ./CF3COOmWat_SMD_M062X.gridpts.0
 Record size in doubles =  12289        No. of grid_pts per rec  =   3070
 Max. records in memory =     15        Max. recs in file   =    640152


           Memory utilization after 1st SCF pass: 
           Heap Space remaining (MW):        4.86             4856572
          Stack Space remaining (MW):       13.11            13106476

   convergence    iter        energy       DeltaE   RMS-Dens  Diis-err    time
 ---------------- ----- ----------------- --------- --------- ---------  ------
     COSMO gas phase
 d= 0,ls=0.0,diis     1   -525.7229562116 -8.47D+02  2.14D-02  2.92D+00     2.0
 d= 0,ls=0.0,diis     2   -525.6265977061  9.64D-02  1.11D-02  4.79D+00     2.6
 d= 0,ls=0.0,diis     3   -526.0572657292 -4.31D-01  1.47D-03  7.26D-02     3.2
 d= 0,ls=0.0,diis     4   -526.0630906046 -5.82D-03  4.03D-04  3.87D-03     3.8
 d= 0,ls=0.0,diis     5   -526.0634354621 -3.45D-04  9.63D-05  1.89D-04     4.4
  Resetting Diis
 d= 0,ls=0.0,diis     6   -526.0634557627 -2.03D-05  4.77D-05  4.12D-05     5.0
 d= 0,ls=0.0,diis     7   -526.0634600173 -4.25D-06  1.29D-05  1.29D-06     5.6
 d= 0,ls=0.0,diis     8   -526.0634601403 -1.23D-07  4.76D-06  6.89D-07     6.2

           Memory utilization after 1st SCF pass: 
           Heap Space remaining (MW):        4.85             4854772
          Stack Space remaining (MW):       13.11            13106476

   convergence    iter        energy       DeltaE   RMS-Dens  Diis-err    time
 ---------------- ----- ----------------- --------- --------- ---------  ------
     COSMO solvation phase
 d= 0,ls=0.0,diis     1   -526.1599174184 -9.65D-02  1.53D-03  7.39D-03     7.0
 d= 0,ls=0.0,diis     2   -526.1616244756 -1.71D-03  3.35D-04  2.89D-03     7.8
 d= 0,ls=0.0,diis     3   -526.1618411439 -2.17D-04  2.03D-04  6.27D-04     8.7
 d= 0,ls=0.0,diis     4   -526.1619098278 -6.87D-05  4.19D-05  2.44D-05     9.5
 d= 0,ls=0.0,diis     5   -526.1619128398 -3.01D-06  1.43D-05  5.06D-06    10.3
 d= 0,ls=0.0,diis     6   -526.1619133550 -5.15D-07  3.88D-06  1.87D-07    11.1


         Total DFT energy =     -526.161913354982
      One electron energy =    -1389.697076501086
           Coulomb energy =      591.283202631712
    Exchange-Corr. energy =      -59.548411240297
 Nuclear repulsion energy =      321.409208802575

             COSMO energy =       10.391162952115

 Numeric. integr. density =       55.999997585041

     Total iterative time =     10.6s


                                COSMO-SMD solvation results
                                ---------------------------
 Reference for the SMD model:
 Marenich, A. V.; Cramer, C. J.; Truhlar, D. G. J. Phys. Chem. B 2009, 113, 6378

             internal energy in gas <Psi(g)|H|Psi(g)> =      -526.063460140318
         internal energy in solvent <Psi(s)|H|Psi(s)> =      -526.061162716205
                               delta internal energy  =         0.002297424113 (    1.44 kcal/mol)
   total free energy in solvent <Psi(s)|H+V/2|Psi(s)> =      -526.170606904595
 polarization energy contribution <Psi(s)|V/2|Psi(s)> =        -0.109444188391 (  -68.68 kcal/mol)
    total free energy in solvent including G(SMD-CDS) =      -526.161913354982
                       G(SMD-CDS) energy contribution =         0.008693549614 (    5.46 kcal/mol)
     1 M fixed-concentration free energy of solvation =        -0.098453214664 (  -61.78 kcal/mol)

                       DFT Final Molecular Orbital Analysis
                       ------------------------------------

 Vector    1  Occ=2.000000D+00  E=-2.527173D+01
              MO Center=  1.1D+00, -1.0D+00, -6.1D-01, r^2= 1.2D-01
   Bfn.  Coefficient  Atom+Function         Bfn.  Coefficient  Atom+Function  
  ----- ------------  ---------------      ----- ------------  ---------------
    76      0.982164  6 F  s                 61     -0.153936  5 F  s          

 Vector    2  Occ=2.000000D+00  E=-2.527170D+01
              MO Center=  1.1D+00,  1.0D+00, -6.1D-01, r^2= 1.2D-01
   Bfn.  Coefficient  Atom+Function         Bfn.  Coefficient  Atom+Function  
  ----- ------------  ---------------      ----- ------------  ---------------
    61      0.982167  5 F  s                 76      0.153965  6 F  s          

 Vector    3  Occ=2.000000D+00  E=-2.527107D+01
              MO Center=  9.9D-01, -1.1D-03,  1.3D+00, r^2= 1.2D-02
   Bfn.  Coefficient  Atom+Function         Bfn.  Coefficient  Atom+Function  
  ----- ------------  ---------------      ----- ------------  ---------------
    91      0.994123  7 F  s          

 Vector    4  Occ=2.000000D+00  E=-1.959822D+01
              MO Center= -1.5D+00,  3.6D-01, -6.6D-03, r^2= 1.2D+00
   Bfn.  Coefficient  Atom+Function         Bfn.  Coefficient  Atom+Function  
  ----- ------------  ---------------      ----- ------------  ---------------
    31      0.806586  3 O  s                 46     -0.580965  4 O  s          

 Vector    5  Occ=2.000000D+00  E=-1.959820D+01
              MO Center= -1.5D+00, -3.6D-01, -6.6D-03, r^2= 1.2D+00
   Bfn.  Coefficient  Atom+Function         Bfn.  Coefficient  Atom+Function  
  ----- ------------  ---------------      ----- ------------  ---------------
    46      0.806589  4 O  s                 31      0.580970  3 O  s          

 Vector    6  Occ=2.000000D+00  E=-1.077658D+01
              MO Center=  5.1D-01, -3.5D-08, -1.2D-02, r^2= 2.8D-02
   Bfn.  Coefficient  Atom+Function         Bfn.  Coefficient  Atom+Function  
  ----- ------------  ---------------      ----- ------------  ---------------
     1      0.994304  1 C  s                  2      0.039323  1 C  s          

 Vector    7  Occ=2.000000D+00  E=-1.065911D+01
              MO Center= -1.1D+00, -5.9D-09, -3.7D-02, r^2= 2.8D-02
   Bfn.  Coefficient  Atom+Function         Bfn.  Coefficient  Atom+Function  
  ----- ------------  ---------------      ----- ------------  ---------------
    16      0.994080  2 C  s                 17      0.040422  2 C  s          

 Vector    8  Occ=2.000000D+00  E=-1.432700D+00
              MO Center=  9.5D-01, -2.7D-04, -1.2D-02, r^2= 1.5D+00
   Bfn.  Coefficient  Atom+Function         Bfn.  Coefficient  Atom+Function  
  ----- ------------  ---------------      ----- ------------  ---------------
    62      0.268387  5 F  s                 77      0.268533  6 F  s          
    92      0.258844  7 F  s                 66      0.254184  5 F  s          
    81      0.254304  6 F  s                 96      0.247429  7 F  s          
     2      0.183894  1 C  s                 61     -0.120529  5 F  s          
    76     -0.120592  6 F  s                 91     -0.116534  7 F  s          

 Vector    9  Occ=2.000000D+00  E=-1.343954D+00
              MO Center=  1.0D+00, -4.9D-03, -5.4D-01, r^2= 1.4D+00
   Bfn.  Coefficient  Atom+Function         Bfn.  Coefficient  Atom+Function  
  ----- ------------  ---------------      ----- ------------  ---------------
    77     -0.368322  6 F  s                 62      0.366217  5 F  s          
    81     -0.341274  6 F  s                 66      0.339366  5 F  s          
    76      0.162126  6 F  s                 61     -0.161205  5 F  s          
     4      0.133380  1 C  py                79     -0.036536  6 F  py         
    64     -0.036308  5 F  py                11      0.032930  1 C  dxy        

 Vector   10  Occ=2.000000D+00  E=-1.341829D+00
              MO Center=  9.6D-01,  5.3D-03,  5.9D-01, r^2= 1.4D+00
   Bfn.  Coefficient  Atom+Function         Bfn.  Coefficient  Atom+Function  
  ----- ------------  ---------------      ----- ------------  ---------------
    92      0.429437  7 F  s                 96      0.395156  7 F  s          
    62     -0.210575  5 F  s                 77     -0.206682  6 F  s          
    66     -0.192210  5 F  s                 81     -0.188591  6 F  s          
    91     -0.188640  7 F  s                  5      0.130452  1 C  pz         
    61      0.092320  5 F  s                 76      0.090605  6 F  s          

 Vector   11  Occ=2.000000D+00  E=-1.161871D+00
              MO Center= -1.4D+00, -4.7D-05, -1.4D-02, r^2= 1.2D+00
   Bfn.  Coefficient  Atom+Function         Bfn.  Coefficient  Atom+Function  
  ----- ------------  ---------------      ----- ------------  ---------------
    32      0.282059  3 O  s                 47      0.282063  4 O  s          
    36      0.278230  3 O  s                 51      0.278223  4 O  s          
    17      0.267651  2 C  s                 16     -0.139357  2 C  s          
    31     -0.131057  3 O  s                 46     -0.131059  4 O  s          
    34     -0.099065  3 O  py                49      0.099072  4 O  py         

 Vector   12  Occ=2.000000D+00  E=-1.076456D+00
              MO Center= -1.4D+00, -1.1D-05, -1.5D-02, r^2= 1.4D+00
   Bfn.  Coefficient  Atom+Function         Bfn.  Coefficient  Atom+Function  
  ----- ------------  ---------------      ----- ------------  ---------------
    36      0.356833  3 O  s                 51     -0.356829  4 O  s          
    32      0.323116  3 O  s                 47     -0.323105  4 O  s          
    19      0.266914  2 C  py                31     -0.151443  3 O  s          
    46      0.151439  4 O  s                 34     -0.079337  3 O  py         
    49     -0.079342  4 O  py                33      0.046327  3 O  px         

 Vector   13  Occ=2.000000D+00  E=-8.074139D-01
              MO Center=  5.4D-01, -8.7D-05, -3.3D-03, r^2= 2.2D+00
   Bfn.  Coefficient  Atom+Function         Bfn.  Coefficient  Atom+Function  
  ----- ------------  ---------------      ----- ------------  ---------------
     2      0.361721  1 C  s                 95     -0.185204  7 F  pz         
    66     -0.174288  5 F  s                 81     -0.174309  6 F  s          
    96     -0.172381  7 F  s                  6      0.164198  1 C  s          
    18      0.162972  2 C  px                64     -0.159474  5 F  py         
    79      0.159344  6 F  py                 1     -0.151894  1 C  s          

 Vector   14  Occ=2.000000D+00  E=-6.927180D-01
              MO Center=  3.1D-01, -1.5D-04, -1.9D-02, r^2= 2.3D+00
   Bfn.  Coefficient  Atom+Function         Bfn.  Coefficient  Atom+Function  
  ----- ------------  ---------------      ----- ------------  ---------------
     3      0.335368  1 C  px                95     -0.198654  7 F  pz         
    64     -0.190965  5 F  py                79      0.190861  6 F  py         
    18     -0.177761  2 C  px                17     -0.143534  2 C  s          
    36      0.133959  3 O  s                 51      0.134007  4 O  s          
    93      0.128167  7 F  px                99     -0.123076  7 F  pz         

 Vector   15  Occ=2.000000D+00  E=-6.604926D-01
              MO Center=  9.2D-01, -2.7D-03,  2.8D-01, r^2= 1.9D+00
   Bfn.  Coefficient  Atom+Function         Bfn.  Coefficient  Atom+Function  
  ----- ------------  ---------------      ----- ------------  ---------------
    95     -0.336881  7 F  pz                 5      0.328368  1 C  pz         
    79     -0.237932  6 F  py                64      0.235992  5 F  py         
    96     -0.215897  7 F  s                 99     -0.201293  7 F  pz         
    93     -0.175294  7 F  px                83     -0.147895  6 F  py         
    68      0.146745  5 F  py                65      0.104781  5 F  pz         

 Vector   16  Occ=2.000000D+00  E=-6.593913D-01
              MO Center=  9.5D-01,  2.7D-03, -2.7D-01, r^2= 1.9D+00
   Bfn.  Coefficient  Atom+Function         Bfn.  Coefficient  Atom+Function  
  ----- ------------  ---------------      ----- ------------  ---------------
     4      0.329691  1 C  py                80     -0.238008  6 F  pz         
    65      0.236715  5 F  pz                94      0.229601  7 F  py         
    64     -0.193126  5 F  py                79     -0.190485  6 F  py         
    66     -0.182077  5 F  s                 81      0.181150  6 F  s          
    63     -0.177829  5 F  px                78      0.177046  6 F  px         

 Vector   17  Occ=2.000000D+00  E=-5.687159D-01
              MO Center= -9.2D-01,  8.2D-05, -9.9D-02, r^2= 3.3D+00
   Bfn.  Coefficient  Atom+Function         Bfn.  Coefficient  Atom+Function  
  ----- ------------  ---------------      ----- ------------  ---------------
    36      0.293820  3 O  s                 51      0.293889  4 O  s          
    34      0.276902  3 O  py                49     -0.276906  4 O  py         
    17     -0.260496  2 C  s                 21     -0.237998  2 C  s          
    63     -0.199187  5 F  px                78     -0.199153  6 F  px         
    38      0.169605  3 O  py                53     -0.169591  4 O  py         

 Vector   18  Occ=2.000000D+00  E=-5.463199D-01
              MO Center=  9.8D-01,  7.6D-04,  3.6D-02, r^2= 2.1D+00
   Bfn.  Coefficient  Atom+Function         Bfn.  Coefficient  Atom+Function  
  ----- ------------  ---------------      ----- ------------  ---------------
    94      0.373303  7 F  py                78     -0.312675  6 F  px         
    63      0.310204  5 F  px                98      0.258809  7 F  py         
    82     -0.228565  6 F  px                67      0.226790  5 F  px         
    65      0.170766  5 F  pz                80     -0.166438  6 F  pz         
    23     -0.116772  2 C  py                69      0.116474  5 F  pz         

 Vector   19  Occ=2.000000D+00  E=-5.461073D-01
              MO Center=  8.9D-01, -1.2D-03,  1.6D-01, r^2= 2.2D+00
   Bfn.  Coefficient  Atom+Function         Bfn.  Coefficient  Atom+Function  
  ----- ------------  ---------------      ----- ------------  ---------------
    93      0.411734  7 F  px                97      0.297327  7 F  px         
    80      0.269149  6 F  pz                65      0.266741  5 F  pz         
    84      0.189802  6 F  pz                69      0.188183  5 F  pz         
    63     -0.151632  5 F  px                78     -0.146808  6 F  px         
    79     -0.146063  6 F  py                64      0.143646  5 F  py         

 Vector   20  Occ=2.000000D+00  E=-5.083332D-01
              MO Center=  6.6D-01, -2.8D-03,  2.4D-01, r^2= 2.6D+00
   Bfn.  Coefficient  Atom+Function         Bfn.  Coefficient  Atom+Function  
  ----- ------------  ---------------      ----- ------------  ---------------
    95      0.363809  7 F  pz                65      0.302361  5 F  pz         
    80      0.303088  6 F  pz                99      0.262981  7 F  pz         
    93     -0.240886  7 F  px                69      0.205985  5 F  pz         
    84      0.206609  6 F  pz                97     -0.161642  7 F  px         
    20      0.139688  2 C  pz                35      0.117622  3 O  pz         

 Vector   21  Occ=2.000000D+00  E=-5.074767D-01
              MO Center=  2.8D-01,  2.6D-03, -1.9D-01, r^2= 3.3D+00
   Bfn.  Coefficient  Atom+Function         Bfn.  Coefficient  Atom+Function  
  ----- ------------  ---------------      ----- ------------  ---------------
    64      0.317998  5 F  py                79      0.317369  6 F  py         
    94      0.243984  7 F  py                68      0.225088  5 F  py         
    83      0.224516  6 F  py                63     -0.184433  5 F  px         
    78      0.183386  6 F  px                19      0.180879  2 C  py         
    98      0.160249  7 F  py                34     -0.139965  3 O  py         

 Vector   22  Occ=2.000000D+00  E=-4.973826D-01
              MO Center= -7.8D-01, -2.3D-05, -1.5D-01, r^2= 3.4D+00
   Bfn.  Coefficient  Atom+Function         Bfn.  Coefficient  Atom+Function  
  ----- ------------  ---------------      ----- ------------  ---------------
    19      0.309442  2 C  py                34     -0.269461  3 O  py         
    49     -0.268522  4 O  py                78     -0.201802  6 F  px         
    63      0.200524  5 F  px                36     -0.190107  3 O  s          
    51      0.189561  4 O  s                 33      0.170617  3 O  px         
    48     -0.171444  4 O  px                38     -0.166967  3 O  py         

 Vector   23  Occ=2.000000D+00  E=-4.950861D-01
              MO Center= -1.5D-01,  7.2D-04, -3.5D-02, r^2= 3.1D+00
   Bfn.  Coefficient  Atom+Function         Bfn.  Coefficient  Atom+Function  
  ----- ------------  ---------------      ----- ------------  ---------------
    18      0.299413  2 C  px                63      0.278223  5 F  px         
    78      0.276857  6 F  px                93      0.249201  7 F  px         
    67      0.191792  5 F  px                82      0.190848  6 F  px         
    49     -0.180334  4 O  py                34      0.178972  3 O  py         
    97      0.173367  7 F  px                22      0.160245  2 C  px         

 Vector   24  Occ=2.000000D+00  E=-4.867940D-01
              MO Center=  1.0D+00,  2.5D-04,  5.5D-02, r^2= 2.0D+00
   Bfn.  Coefficient  Atom+Function         Bfn.  Coefficient  Atom+Function  
  ----- ------------  ---------------      ----- ------------  ---------------
    94      0.414263  7 F  py                65     -0.347883  5 F  pz         
    80      0.347406  6 F  pz                98      0.292250  7 F  py         
    69     -0.242727  5 F  pz                84      0.242390  6 F  pz         
    64     -0.187788  5 F  py                79     -0.188373  6 F  py         
    68     -0.131913  5 F  py                83     -0.132323  6 F  py         

 Vector   25  Occ=2.000000D+00  E=-4.748322D-01
              MO Center= -8.8D-01, -5.7D-05,  5.1D-02, r^2= 2.5D+00
   Bfn.  Coefficient  Atom+Function         Bfn.  Coefficient  Atom+Function  
  ----- ------------  ---------------      ----- ------------  ---------------
    20      0.334042  2 C  pz                35      0.300783  3 O  pz         
    50      0.300756  4 O  pz                93      0.215969  7 F  px         
    39      0.198011  3 O  pz                54      0.197981  4 O  pz         
    24      0.170788  2 C  pz                97      0.151733  7 F  px         
    63     -0.124718  5 F  px                78     -0.124983  6 F  px         

 Vector   26  Occ=2.000000D+00  E=-3.359705D-01
              MO Center= -1.5D+00,  1.6D-04, -9.4D-04, r^2= 2.0D+00
   Bfn.  Coefficient  Atom+Function         Bfn.  Coefficient  Atom+Function  
  ----- ------------  ---------------      ----- ------------  ---------------
    33      0.349335  3 O  px                48     -0.349286  4 O  px         
    37      0.265508  3 O  px                52     -0.265489  4 O  px         
    34      0.261774  3 O  py                49      0.261693  4 O  py         
    38      0.204175  3 O  py                53      0.204115  4 O  py         
    35      0.131628  3 O  pz                50     -0.131636  4 O  pz         

 Vector   27  Occ=2.000000D+00  E=-3.321624D-01
              MO Center= -1.5D+00, -5.3D-05, -2.5D-02, r^2= 1.9D+00
   Bfn.  Coefficient  Atom+Function         Bfn.  Coefficient  Atom+Function  
  ----- ------------  ---------------      ----- ------------  ---------------
    35      0.424786  3 O  pz                50     -0.424801  4 O  pz         
    39      0.349133  3 O  pz                54     -0.349145  4 O  pz         
    33     -0.101167  3 O  px                48      0.101131  4 O  px         
    34     -0.094142  3 O  py                49     -0.094121  4 O  py         
    29      0.080743  2 C  dyz               38     -0.078087  3 O  py         

 Vector   28  Occ=2.000000D+00  E=-3.216277D-01
              MO Center= -1.0D+00, -2.4D-04, -5.8D-03, r^2= 2.4D+00
   Bfn.  Coefficient  Atom+Function         Bfn.  Coefficient  Atom+Function  
  ----- ------------  ---------------      ----- ------------  ---------------
    33      0.387392  3 O  px                48      0.387491  4 O  px         
     6     -0.320996  1 C  s                 37      0.309207  3 O  px         
    52      0.309285  4 O  px                 3      0.299464  1 C  px         
    18     -0.147496  2 C  px                 2     -0.142577  1 C  s          
    93     -0.132612  7 F  px                21     -0.127566  2 C  s          

 Vector   29  Occ=0.000000D+00  E= 7.798042D-02
              MO Center= -8.8D-01,  1.3D-05, -4.8D-02, r^2= 2.1D+00
   Bfn.  Coefficient  Atom+Function         Bfn.  Coefficient  Atom+Function  
  ----- ------------  ---------------      ----- ------------  ---------------
    20      0.466641  2 C  pz                24      0.459037  2 C  pz         
     9      0.358104  1 C  pz                39     -0.359306  3 O  pz         
    54     -0.359305  4 O  pz                35     -0.308893  3 O  pz         
    50     -0.308861  4 O  pz                96     -0.277361  7 F  s          
     5      0.212307  1 C  pz                99      0.135756  7 F  pz         

 Vector   30  Occ=0.000000D+00  E= 2.267858D-01
              MO Center=  3.4D-01, -2.5D-05, -5.3D-03, r^2= 1.8D+00
   Bfn.  Coefficient  Atom+Function         Bfn.  Coefficient  Atom+Function  
  ----- ------------  ---------------      ----- ------------  ---------------
     8      0.790160  1 C  py                 4      0.632102  1 C  py         
    23      0.536999  2 C  py                66     -0.480567  5 F  s          
    81      0.479965  6 F  s                 36     -0.415850  3 O  s          
    51      0.415024  4 O  s                 67      0.209000  5 F  px         
    82     -0.208882  6 F  px                69     -0.204152  5 F  pz         

 Vector   31  Occ=0.000000D+00  E= 2.750621D-01
              MO Center=  1.6D-01,  7.0D-05,  5.5D-02, r^2= 2.0D+00
   Bfn.  Coefficient  Atom+Function         Bfn.  Coefficient  Atom+Function  
  ----- ------------  ---------------      ----- ------------  ---------------
     9      1.022589  1 C  pz                96     -0.716687  7 F  s          
     5      0.646611  1 C  pz                24     -0.504623  2 C  pz         
    99      0.372598  7 F  pz                20     -0.360867  2 C  pz         
     6      0.354736  1 C  s                 81      0.250943  6 F  s          
    66      0.249574  5 F  s                 21     -0.242622  2 C  s          

 Vector   32  Occ=0.000000D+00  E= 2.870831D-01
              MO Center=  2.6D-01,  9.6D-05, -8.8D-02, r^2= 2.3D+00
   Bfn.  Coefficient  Atom+Function         Bfn.  Coefficient  Atom+Function  
  ----- ------------  ---------------      ----- ------------  ---------------
     6      1.686026  1 C  s                 21     -1.693044  2 C  s          
    36      0.543733  3 O  s                 51      0.544106  4 O  s          
    66     -0.463799  5 F  s                 81     -0.464039  6 F  s          
     2      0.446054  1 C  s                 96     -0.424007  7 F  s          
    68      0.321717  5 F  py                83     -0.321420  6 F  py         

 Vector   33  Occ=0.000000D+00  E= 2.975560D-01
              MO Center= -1.2D-01, -1.7D-04,  1.5D-02, r^2= 3.1D+00
   Bfn.  Coefficient  Atom+Function         Bfn.  Coefficient  Atom+Function  
  ----- ------------  ---------------      ----- ------------  ---------------
    21      2.650784  2 C  s                  7      1.040346  1 C  px         
    36     -0.878357  3 O  s                 51     -0.878855  4 O  s          
     3      0.550836  1 C  px                38      0.541144  3 O  py         
    53     -0.541301  4 O  py                66     -0.352829  5 F  s          
    81     -0.353085  6 F  s                 68      0.244513  5 F  py         

 Vector   34  Occ=0.000000D+00  E= 3.656846D-01
              MO Center= -1.0D+00,  2.4D-05, -3.6D-02, r^2= 2.7D+00
   Bfn.  Coefficient  Atom+Function         Bfn.  Coefficient  Atom+Function  
  ----- ------------  ---------------      ----- ------------  ---------------
    22      1.998521  2 C  px                 6     -1.469533  1 C  s          
     7      1.219511  1 C  px                36      0.752222  3 O  s          
    51      0.751303  4 O  s                 38     -0.535521  3 O  py         
    53      0.535246  4 O  py                18      0.511416  2 C  px         
     3      0.314087  1 C  px                37     -0.258140  3 O  px         

 Vector   35  Occ=0.000000D+00  E= 5.033856D-01
              MO Center= -7.4D-01,  2.0D-04, -9.6D-02, r^2= 3.5D+00
   Bfn.  Coefficient  Atom+Function         Bfn.  Coefficient  Atom+Function  
  ----- ------------  ---------------      ----- ------------  ---------------
    23      3.632567  2 C  py                36     -2.230881  3 O  s          
    51      2.231162  4 O  s                  8     -0.986005  1 C  py         
    38      0.716351  3 O  py                53      0.716604  4 O  py         
    37     -0.618883  3 O  px                52      0.618881  4 O  px         
     4     -0.496636  1 C  py                66      0.427768  5 F  s          

 Vector   36  Occ=0.000000D+00  E= 5.341161D-01
              MO Center=  1.2D+00,  5.2D-05, -2.4D-02, r^2= 2.3D+00
   Bfn.  Coefficient  Atom+Function         Bfn.  Coefficient  Atom+Function  
  ----- ------------  ---------------      ----- ------------  ---------------
     7      2.190782  1 C  px                21      1.484099  2 C  s          
    22      1.131130  2 C  px                 2     -0.705452  1 C  s          
     3     -0.626795  1 C  px                66     -0.543982  5 F  s          
    81     -0.544038  6 F  s                  6      0.500906  1 C  s          
    96     -0.426219  7 F  s                 18     -0.324156  2 C  px         

 Vector   37  Occ=0.000000D+00  E= 5.679957D-01
              MO Center= -1.8D-02,  1.6D-04, -9.5D-02, r^2= 2.4D+00
   Bfn.  Coefficient  Atom+Function         Bfn.  Coefficient  Atom+Function  
  ----- ------------  ---------------      ----- ------------  ---------------
     9      1.357691  1 C  pz                 5     -0.723384  1 C  pz         
    96     -0.620553  7 F  s                 20     -0.590808  2 C  pz         
    24      0.368601  2 C  pz                66      0.237741  5 F  s          
    81      0.238473  6 F  s                 95     -0.204266  7 F  pz         
    99      0.156737  7 F  pz                 6      0.147236  1 C  s          

 Vector   38  Occ=0.000000D+00  E= 6.249703D-01
              MO Center=  3.8D-01, -2.0D-03,  1.7D-01, r^2= 3.2D+00
   Bfn.  Coefficient  Atom+Function         Bfn.  Coefficient  Atom+Function  
  ----- ------------  ---------------      ----- ------------  ---------------
     8      2.651568  1 C  py                23     -2.270122  2 C  py         
    36      1.370528  3 O  s                 51     -1.370529  4 O  s          
    66     -0.951920  5 F  s                 81      0.951572  6 F  s          
     4     -0.708406  1 C  py                38     -0.409101  3 O  py         
    53     -0.409136  4 O  py                37      0.307430  3 O  px         

 Vector   39  Occ=0.000000D+00  E= 6.390100D-01
              MO Center= -1.4D+00,  1.2D-03, -1.2D-01, r^2= 1.9D+00
   Bfn.  Coefficient  Atom+Function         Bfn.  Coefficient  Atom+Function  
  ----- ------------  ---------------      ----- ------------  ---------------
     6      2.285327  1 C  s                 22     -1.700639  2 C  px         
    18      0.695480  2 C  px                 7     -0.669769  1 C  px         
     2     -0.636608  1 C  s                 17     -0.636748  2 C  s          
    21     -0.520275  2 C  s                 96     -0.443530  7 F  s          
    24     -0.393300  2 C  pz                 9      0.372024  1 C  pz         

 Vector   40  Occ=0.000000D+00  E= 6.692874D-01
              MO Center= -7.5D-01,  1.6D-04,  4.6D-02, r^2= 3.1D+00
   Bfn.  Coefficient  Atom+Function         Bfn.  Coefficient  Atom+Function  
  ----- ------------  ---------------      ----- ------------  ---------------
     9      1.735520  1 C  pz                24     -1.594789  2 C  pz         
    96     -0.854143  7 F  s                 20      0.738332  2 C  pz         
     5     -0.434261  1 C  pz                66      0.343876  5 F  s          
    81      0.345177  6 F  s                 21     -0.298133  2 C  s          
    22      0.271998  2 C  px                17      0.244598  2 C  s          

 Vector   41  Occ=0.000000D+00  E= 7.443476D-01
              MO Center= -3.5D-01, -4.1D-04,  4.6D-03, r^2= 2.5D+00
   Bfn.  Coefficient  Atom+Function         Bfn.  Coefficient  Atom+Function  
  ----- ------------  ---------------      ----- ------------  ---------------
    22      1.112228  2 C  px                 7     -0.805374  1 C  px         
    17     -0.564758  2 C  s                  3      0.520030  1 C  px         
    96      0.501455  7 F  s                 18     -0.460819  2 C  px         
    66      0.462134  5 F  s                 81      0.463016  6 F  s          
     6     -0.379362  1 C  s                  2     -0.366146  1 C  s          

 Vector   42  Occ=0.000000D+00  E= 7.522395D-01
              MO Center= -1.1D+00,  1.2D-04, -4.8D-02, r^2= 1.7D+00
   Bfn.  Coefficient  Atom+Function         Bfn.  Coefficient  Atom+Function  
  ----- ------------  ---------------      ----- ------------  ---------------
    23      1.806910  2 C  py                19     -1.054786  2 C  py         
     8     -0.913460  1 C  py                36     -0.723860  3 O  s          
    51      0.724643  4 O  s                 66      0.377170  5 F  s          
    81     -0.376194  6 F  s                 26     -0.275220  2 C  dxy        
    34     -0.235863  3 O  py                49     -0.235695  4 O  py         

 Vector   43  Occ=0.000000D+00  E= 9.011921D-01
              MO Center= -8.4D-01,  1.5D-03, -9.9D-02, r^2= 3.6D+00
   Bfn.  Coefficient  Atom+Function         Bfn.  Coefficient  Atom+Function  
  ----- ------------  ---------------      ----- ------------  ---------------
    21      4.875523  2 C  s                  6     -4.103659  1 C  s          
    22      1.933987  2 C  px                 7      1.862907  1 C  px         
     2      0.999736  1 C  s                 36     -0.882653  3 O  s          
    51     -0.883195  4 O  s                 17     -0.819129  2 C  s          
    38      0.753393  3 O  py                53     -0.752471  4 O  py         

 Vector   44  Occ=0.000000D+00  E= 9.202114D-01
              MO Center= -1.3D+00, -1.9D-03, -2.6D-02, r^2= 3.9D+00
   Bfn.  Coefficient  Atom+Function         Bfn.  Coefficient  Atom+Function  
  ----- ------------  ---------------      ----- ------------  ---------------
    21      2.399897  2 C  s                  6     -1.973342  1 C  s          
    17     -1.063549  2 C  s                 22      0.992152  2 C  px         
    36     -0.933183  3 O  s                 51     -0.933687  4 O  s          
     7      0.898822  1 C  px                38     -0.552567  3 O  py         
    53      0.553660  4 O  py                96      0.469804  7 F  s          

 Vector   45  Occ=0.000000D+00  E= 9.538819D-01
              MO Center= -1.3D+00,  9.9D-04,  4.2D-02, r^2= 4.1D+00
   Bfn.  Coefficient  Atom+Function         Bfn.  Coefficient  Atom+Function  
  ----- ------------  ---------------      ----- ------------  ---------------
    36      0.681183  3 O  s                 51     -0.678586  4 O  s          
    38      0.582574  3 O  py                53      0.582719  4 O  py         
    23     -0.488254  2 C  py                34     -0.384198  3 O  py         
    49     -0.384169  4 O  py                26     -0.350626  2 C  dxy        
     8      0.337652  1 C  py                33      0.332076  3 O  px         

 Vector   46  Occ=0.000000D+00  E= 1.021405D+00
              MO Center= -1.3D+00,  2.1D-04, -2.5D-02, r^2= 3.3D+00
   Bfn.  Coefficient  Atom+Function         Bfn.  Coefficient  Atom+Function  
  ----- ------------  ---------------      ----- ------------  ---------------
    39      0.724154  3 O  pz                54     -0.724060  4 O  pz         
    35     -0.632240  3 O  pz                50      0.632069  4 O  pz         
    66     -0.599906  5 F  s                 81      0.600548  6 F  s          
    23      0.380935  2 C  py                62      0.324384  5 F  s          
    77     -0.324585  6 F  s                 36     -0.233228  3 O  s          

 Vector   47  Occ=0.000000D+00  E= 1.082857D+00
              MO Center= -2.8D-01,  3.4D-03,  4.4D-01, r^2= 4.0D+00
   Bfn.  Coefficient  Atom+Function         Bfn.  Coefficient  Atom+Function  
  ----- ------------  ---------------      ----- ------------  ---------------
     6      1.255828  1 C  s                 96      1.210873  7 F  s          
    21     -1.002898  2 C  s                  7     -0.780666  1 C  px         
    92     -0.717219  7 F  s                 37     -0.622510  3 O  px         
    52     -0.618806  4 O  px                 2     -0.475368  1 C  s          
    17      0.458525  2 C  s                 99      0.424181  7 F  pz         

 Vector   48  Occ=0.000000D+00  E= 1.101494D+00
              MO Center= -1.3D+00, -3.7D-03,  1.2D-02, r^2= 3.5D+00
   Bfn.  Coefficient  Atom+Function         Bfn.  Coefficient  Atom+Function  
  ----- ------------  ---------------      ----- ------------  ---------------
    52     -0.662737  4 O  px                37      0.659358  3 O  px         
    23     -0.543600  2 C  py                38      0.496171  3 O  py         
    53      0.496346  4 O  py                33     -0.469632  3 O  px         
    48      0.471679  4 O  px                34     -0.339463  3 O  py         
    49     -0.339965  4 O  py                26     -0.249283  2 C  dxy        

 Vector   49  Occ=0.000000D+00  E= 1.117141D+00
              MO Center= -6.2D-01, -6.1D-04,  1.9D-02, r^2= 4.3D+00
   Bfn.  Coefficient  Atom+Function         Bfn.  Coefficient  Atom+Function  
  ----- ------------  ---------------      ----- ------------  ---------------
    39      0.768723  3 O  pz                54      0.769001  4 O  pz         
    96      0.771622  7 F  s                 24     -0.638308  2 C  pz         
    66     -0.583857  5 F  s                 81     -0.584668  6 F  s          
    35     -0.540253  3 O  pz                50     -0.540458  4 O  pz         
    92     -0.408400  7 F  s                 12      0.293439  1 C  dxz        

 Vector   50  Occ=0.000000D+00  E= 1.156816D+00
              MO Center=  9.1D-01, -2.0D-03, -5.8D-01, r^2= 3.7D+00
   Bfn.  Coefficient  Atom+Function         Bfn.  Coefficient  Atom+Function  
  ----- ------------  ---------------      ----- ------------  ---------------
    66      1.382694  5 F  s                 81     -1.385740  6 F  s          
    62     -0.726490  5 F  s                 77      0.728080  6 F  s          
    75     -0.388336  5 F  dzz               90      0.388997  6 F  dzz        
    69     -0.380453  5 F  pz                84      0.380997  6 F  pz         
    83      0.366195  6 F  py                14     -0.363608  1 C  dyz        

 Vector   51  Occ=0.000000D+00  E= 1.188559D+00
              MO Center=  1.7D-01,  9.0D-04,  4.5D-01, r^2= 4.7D+00
   Bfn.  Coefficient  Atom+Function         Bfn.  Coefficient  Atom+Function  
  ----- ------------  ---------------      ----- ------------  ---------------
    96      1.572002  7 F  s                 24      0.729426  2 C  pz         
    66     -0.726208  5 F  s                 81     -0.724068  6 F  s          
    92     -0.719607  7 F  s                  9     -0.581687  1 C  pz         
    22     -0.525196  2 C  px                39     -0.517413  3 O  pz         
    54     -0.516967  4 O  pz                99      0.436934  7 F  pz         

 Vector   52  Occ=0.000000D+00  E= 1.213643D+00
              MO Center= -4.9D-02,  8.6D-04, -2.0D-01, r^2= 3.7D+00
   Bfn.  Coefficient  Atom+Function         Bfn.  Coefficient  Atom+Function  
  ----- ------------  ---------------      ----- ------------  ---------------
     6      1.025160  1 C  s                 22     -1.029657  2 C  px         
    21     -0.780048  2 C  s                 24     -0.686982  2 C  pz         
    96     -0.532067  7 F  s                  9      0.502429  1 C  pz         
    37      0.498170  3 O  px                52      0.498291  4 O  px         
    39      0.462216  3 O  pz                54      0.461891  4 O  pz         

 Vector   53  Occ=0.000000D+00  E= 1.243612D+00
              MO Center=  7.1D-01,  5.0D-05, -1.1D-03, r^2= 4.3D+00
   Bfn.  Coefficient  Atom+Function         Bfn.  Coefficient  Atom+Function  
  ----- ------------  ---------------      ----- ------------  ---------------
    21      1.265877  2 C  s                  6     -1.033703  1 C  s          
     2      0.742391  1 C  s                 66      0.691004  5 F  s          
    81      0.690736  6 F  s                 36     -0.687024  3 O  s          
    51     -0.688329  4 O  s                 96      0.676329  7 F  s          
    99      0.531483  7 F  pz                68      0.434068  5 F  py         

 Vector   54  Occ=0.000000D+00  E= 1.369515D+00
              MO Center=  3.6D-01,  5.6D-04, -3.4D-01, r^2= 3.7D+00
   Bfn.  Coefficient  Atom+Function         Bfn.  Coefficient  Atom+Function  
  ----- ------------  ---------------      ----- ------------  ---------------
     8      1.068376  1 C  py                23     -0.932765  2 C  py         
    66     -0.785490  5 F  s                 81      0.784796  6 F  s          
    67     -0.530637  5 F  px                82      0.530324  6 F  px         
    63      0.492534  5 F  px                78     -0.492244  6 F  px         
    98     -0.359536  7 F  py                37     -0.349221  3 O  px         

 Vector   55  Occ=0.000000D+00  E= 1.411605D+00
              MO Center=  9.1D-01, -3.7D-04,  1.2D-01, r^2= 3.1D+00
   Bfn.  Coefficient  Atom+Function         Bfn.  Coefficient  Atom+Function  
  ----- ------------  ---------------      ----- ------------  ---------------
    36     -0.810557  3 O  s                 51      0.809479  4 O  s          
    23      0.773253  2 C  py                98      0.753700  7 F  py         
    94     -0.571564  7 F  py                69     -0.514349  5 F  pz         
    84      0.513901  6 F  pz                65      0.418653  5 F  pz         
    80     -0.418292  6 F  pz                 8     -0.355377  1 C  py         

 Vector   56  Occ=0.000000D+00  E= 1.418247D+00
              MO Center=  7.3D-01, -1.1D-03,  6.7D-01, r^2= 2.6D+00
   Bfn.  Coefficient  Atom+Function         Bfn.  Coefficient  Atom+Function  
  ----- ------------  ---------------      ----- ------------  ---------------
    97      0.772252  7 F  px                22      0.659310  2 C  px         
    36      0.578215  3 O  s                 51      0.577154  4 O  s          
    93     -0.562507  7 F  px                12     -0.511752  1 C  dxz        
     6     -0.423663  1 C  s                102      0.362514  7 F  dxz        
    27      0.335768  2 C  dxz               38     -0.283706  3 O  py         

 Vector   57  Occ=0.000000D+00  E= 1.453452D+00
              MO Center=  6.8D-01, -6.0D-04,  1.1D-01, r^2= 2.3D+00
   Bfn.  Coefficient  Atom+Function         Bfn.  Coefficient  Atom+Function  
  ----- ------------  ---------------      ----- ------------  ---------------
    14      0.703224  1 C  dyz               11      0.663910  1 C  dxy        
   104     -0.624702  7 F  dyz               66      0.468340  5 F  s          
    81     -0.467872  6 F  s                 23      0.343318  2 C  py         
     8     -0.339284  1 C  py                98     -0.291883  7 F  py         
    71     -0.282760  5 F  dxy               86     -0.283035  6 F  dxy        

 Vector   58  Occ=0.000000D+00  E= 1.458738D+00
              MO Center=  8.4D-01,  1.7D-03, -3.5D-01, r^2= 3.0D+00
   Bfn.  Coefficient  Atom+Function         Bfn.  Coefficient  Atom+Function  
  ----- ------------  ---------------      ----- ------------  ---------------
    36      1.008636  3 O  s                 51      1.008206  4 O  s          
    21     -0.820863  2 C  s                 69     -0.608611  5 F  pz         
    84     -0.607655  6 F  pz                22      0.589720  2 C  px         
     9      0.573074  1 C  pz                38     -0.383658  3 O  py         
    53      0.384125  4 O  py                65      0.377097  5 F  pz         

 Vector   59  Occ=0.000000D+00  E= 1.462523D+00
              MO Center=  8.5D-01, -2.6D-03, -1.1D-01, r^2= 3.3D+00
   Bfn.  Coefficient  Atom+Function         Bfn.  Coefficient  Atom+Function  
  ----- ------------  ---------------      ----- ------------  ---------------
     8      0.930898  1 C  py                98     -0.692155  7 F  py         
    23     -0.664342  2 C  py                68     -0.529644  5 F  py         
    83     -0.531286  6 F  py                94      0.432123  7 F  py         
    51     -0.395202  4 O  s                 36      0.390792  3 O  s          
    82     -0.343680  6 F  px                67      0.341449  5 F  px         

 Vector   60  Occ=0.000000D+00  E= 1.475475D+00
              MO Center=  7.3D-01,  2.9D-03, -3.0D-01, r^2= 3.1D+00
   Bfn.  Coefficient  Atom+Function         Bfn.  Coefficient  Atom+Function  
  ----- ------------  ---------------      ----- ------------  ---------------
    21      1.616373  2 C  s                 36     -0.960777  3 O  s          
    51     -0.961495  4 O  s                  7      0.882635  1 C  px         
     6     -0.675061  1 C  s                 67     -0.607370  5 F  px         
    82     -0.605826  6 F  px                96      0.533295  7 F  s          
    97     -0.423373  7 F  px                63      0.367026  5 F  px         

 Vector   61  Occ=0.000000D+00  E= 1.502167D+00
              MO Center= -1.0D+00, -4.4D-04, -4.1D-02, r^2= 2.2D+00
   Bfn.  Coefficient  Atom+Function         Bfn.  Coefficient  Atom+Function  
  ----- ------------  ---------------      ----- ------------  ---------------
    29      0.968415  2 C  dyz               44     -0.520325  3 O  dyz        
    59     -0.519755  4 O  dyz               66     -0.464969  5 F  s          
    81      0.461341  6 F  s                 42      0.403753  3 O  dxz        
    57     -0.403069  4 O  dxz               68      0.253056  5 F  py         
    83      0.253745  6 F  py                62      0.212734  5 F  s          

 Vector   62  Occ=0.000000D+00  E= 1.502795D+00
              MO Center= -5.6D-01,  3.8D-04,  1.9D-01, r^2= 3.9D+00
   Bfn.  Coefficient  Atom+Function         Bfn.  Coefficient  Atom+Function  
  ----- ------------  ---------------      ----- ------------  ---------------
    36      2.566529  3 O  s                 51      2.564245  4 O  s          
    22      2.301425  2 C  px                 6     -1.430140  1 C  s          
    21     -1.168889  2 C  s                 38     -1.056285  3 O  py         
    53      1.055153  4 O  py                 7      0.927863  1 C  px         
    32     -0.822254  3 O  s                 47     -0.821213  4 O  s          

 Vector   63  Occ=0.000000D+00  E= 1.653463D+00
              MO Center=  9.8D-03, -1.9D-04,  2.8D-02, r^2= 2.9D+00
   Bfn.  Coefficient  Atom+Function         Bfn.  Coefficient  Atom+Function  
  ----- ------------  ---------------      ----- ------------  ---------------
     7      0.958326  1 C  px                96     -0.955923  7 F  s          
     6     -0.592185  1 C  s                 66      0.536412  5 F  s          
    81      0.537395  6 F  s                 67     -0.507768  5 F  px         
    82     -0.507718  6 F  px                92      0.418425  7 F  s          
    27      0.403120  2 C  dxz               99      0.382163  7 F  pz         

 Vector   64  Occ=0.000000D+00  E= 1.696145D+00
              MO Center= -4.5D-01, -1.8D-03,  6.9D-02, r^2= 2.9D+00
   Bfn.  Coefficient  Atom+Function         Bfn.  Coefficient  Atom+Function  
  ----- ------------  ---------------      ----- ------------  ---------------
    36      0.906640  3 O  s                 51      0.862552  4 O  s          
    27     -0.817150  2 C  dxz               21     -0.794103  2 C  s          
    42     -0.475749  3 O  dxz               57     -0.475914  4 O  dxz        
     9      0.468951  1 C  pz                 7      0.414827  1 C  px         
    24     -0.406092  2 C  pz                 6     -0.398215  1 C  s          

 Vector   65  Occ=0.000000D+00  E= 1.699795D+00
              MO Center=  6.5D-01,  2.0D-03,  1.9D-01, r^2= 2.6D+00
   Bfn.  Coefficient  Atom+Function         Bfn.  Coefficient  Atom+Function  
  ----- ------------  ---------------      ----- ------------  ---------------
    81     -1.504550  6 F  s                 66      1.492636  5 F  s          
    51     -0.972539  4 O  s                101      0.946540  7 F  dxy        
    36      0.932569  3 O  s                 77      0.683624  6 F  s          
    62     -0.679803  5 F  s                 23     -0.665244  2 C  py         
     8     -0.599731  1 C  py                72      0.486201  5 F  dxz        

 Vector   66  Occ=0.000000D+00  E= 1.758855D+00
              MO Center= -5.4D-01, -6.2D-05, -2.4D-02, r^2= 3.5D+00
   Bfn.  Coefficient  Atom+Function         Bfn.  Coefficient  Atom+Function  
  ----- ------------  ---------------      ----- ------------  ---------------
    23      3.166194  2 C  py                36     -3.119987  3 O  s          
    51      3.121628  4 O  s                  8     -1.204414  1 C  py         
    66      1.055767  5 F  s                 81     -1.056782  6 F  s          
    32      0.755572  3 O  s                 47     -0.756102  4 O  s          
    38      0.637504  3 O  py                53      0.638332  4 O  py         

 Vector   67  Occ=0.000000D+00  E= 1.780053D+00
              MO Center=  7.9D-02, -2.9D-04, -1.3D-01, r^2= 3.5D+00
   Bfn.  Coefficient  Atom+Function         Bfn.  Coefficient  Atom+Function  
  ----- ------------  ---------------      ----- ------------  ---------------
    21      1.969486  2 C  s                 36     -1.774740  3 O  s          
    51     -1.773481  4 O  s                 96     -1.180906  7 F  s          
    22     -0.672149  2 C  px                38      0.609807  3 O  py         
    53     -0.609836  4 O  py                32      0.581728  3 O  s          
    47      0.581689  4 O  s                 92      0.550846  7 F  s          

 Vector   68  Occ=0.000000D+00  E= 1.822888D+00
              MO Center= -7.4D-01,  4.2D-04, -1.7D-01, r^2= 3.2D+00
   Bfn.  Coefficient  Atom+Function         Bfn.  Coefficient  Atom+Function  
  ----- ------------  ---------------      ----- ------------  ---------------
    36      2.076749  3 O  s                 51     -2.074903  4 O  s          
    23     -1.875449  2 C  py                32     -0.696274  3 O  s          
    47      0.695649  4 O  s                 38     -0.595633  3 O  py         
    53     -0.595109  4 O  py                 8      0.549904  1 C  py         
    40     -0.463169  3 O  dxx               55      0.462862  4 O  dxx        

 Vector   69  Occ=0.000000D+00  E= 1.883455D+00
              MO Center= -1.3D+00, -2.5D-04, -6.2D-02, r^2= 2.5D+00
   Bfn.  Coefficient  Atom+Function         Bfn.  Coefficient  Atom+Function  
  ----- ------------  ---------------      ----- ------------  ---------------
    42      0.953787  3 O  dxz               57     -0.954248  4 O  dxz        
    44      0.645946  3 O  dyz               59      0.645687  4 O  dyz        
    72      0.331465  5 F  dxz               87     -0.331439  6 F  dxz        
    66     -0.261108  5 F  s                 81      0.261136  6 F  s          
     8      0.193855  1 C  py                36     -0.191950  3 O  s          

 Vector   70  Occ=0.000000D+00  E= 1.908858D+00
              MO Center=  6.5D-01,  6.3D-04, -2.2D-01, r^2= 2.9D+00
   Bfn.  Coefficient  Atom+Function         Bfn.  Coefficient  Atom+Function  
  ----- ------------  ---------------      ----- ------------  ---------------
    71      0.674154  5 F  dxy               86      0.674733  6 F  dxy        
   101     -0.671035  7 F  dxy               72      0.636429  5 F  dxz        
    87     -0.635551  6 F  dxz               36      0.456655  3 O  s          
    51     -0.455355  4 O  s                 23     -0.442013  2 C  py         
    66     -0.303683  5 F  s                 81      0.302961  6 F  s          

 Vector   71  Occ=0.000000D+00  E= 1.919654D+00
              MO Center= -8.1D-02,  8.0D-04,  4.0D-01, r^2= 3.1D+00
   Bfn.  Coefficient  Atom+Function         Bfn.  Coefficient  Atom+Function  
  ----- ------------  ---------------      ----- ------------  ---------------
    42     -0.653070  3 O  dxz               57     -0.651742  4 O  dxz        
     7      0.640429  1 C  px                66     -0.582468  5 F  s          
    81     -0.580726  6 F  s                103     -0.511732  7 F  dyy        
   102     -0.505497  7 F  dxz              100      0.411999  7 F  dxx        
    17      0.309940  2 C  s                 22     -0.301383  2 C  px         

 Vector   72  Occ=0.000000D+00  E= 1.921079D+00
              MO Center= -4.8D-01, -5.3D-04, -2.1D-01, r^2= 3.6D+00
   Bfn.  Coefficient  Atom+Function         Bfn.  Coefficient  Atom+Function  
  ----- ------------  ---------------      ----- ------------  ---------------
    41      0.600903  3 O  dxy               56      0.600417  4 O  dxy        
    74     -0.435666  5 F  dyz               89     -0.434719  6 F  dyz        
    60      0.366149  4 O  dzz               45     -0.364284  3 O  dzz        
    71     -0.311673  5 F  dxy               86     -0.306921  6 F  dxy        
    26     -0.290089  2 C  dxy               85     -0.290813  6 F  dxx        

 Vector   73  Occ=0.000000D+00  E= 1.923634D+00
              MO Center=  8.4D-01, -9.0D-04, -1.6D-01, r^2= 2.4D+00
   Bfn.  Coefficient  Atom+Function         Bfn.  Coefficient  Atom+Function  
  ----- ------------  ---------------      ----- ------------  ---------------
    72      0.561898  5 F  dxz               87      0.562245  6 F  dxz        
     6      0.538818  1 C  s                102      0.493922  7 F  dxz        
    74     -0.471769  5 F  dyz               89      0.473203  6 F  dyz        
    70      0.438870  5 F  dxx               85      0.439430  6 F  dxx        
    22     -0.432503  2 C  px               103      0.384181  7 F  dyy        

 Vector   74  Occ=0.000000D+00  E= 1.965649D+00
              MO Center= -3.5D-01,  1.3D-04,  2.3D-01, r^2= 2.8D+00
   Bfn.  Coefficient  Atom+Function         Bfn.  Coefficient  Atom+Function  
  ----- ------------  ---------------      ----- ------------  ---------------
    96      1.936778  7 F  s                  9     -1.127548  1 C  pz         
     6     -0.956127  1 C  s                 27      0.692997  2 C  dxz        
    42     -0.598239  3 O  dxz               57     -0.597901  4 O  dxz        
     7     -0.570976  1 C  px                24      0.538523  2 C  pz         
    92     -0.531231  7 F  s                100     -0.521387  7 F  dxx        

 Vector   75  Occ=0.000000D+00  E= 1.993203D+00
              MO Center= -3.6D-01,  1.0D-03,  6.8D-02, r^2= 3.3D+00
   Bfn.  Coefficient  Atom+Function         Bfn.  Coefficient  Atom+Function  
  ----- ------------  ---------------      ----- ------------  ---------------
    21      1.724081  2 C  s                  6     -0.615373  1 C  s          
     7      0.605583  1 C  px                36     -0.607793  3 O  s          
    51     -0.603656  4 O  s                 40      0.461116  3 O  dxx        
    55      0.460479  4 O  dxx               17     -0.400410  2 C  s          
   100     -0.380711  7 F  dxx               70     -0.323289  5 F  dxx        

 Vector   76  Occ=0.000000D+00  E= 2.043353D+00
              MO Center=  5.8D-01, -1.1D-03,  7.5D-02, r^2= 3.1D+00
   Bfn.  Coefficient  Atom+Function         Bfn.  Coefficient  Atom+Function  
  ----- ------------  ---------------      ----- ------------  ---------------
    81      1.362439  6 F  s                 66      1.352594  5 F  s          
    96     -1.325270  7 F  s                  9      1.193180  1 C  pz         
    92      0.619527  7 F  s                102      0.575606  7 F  dxz        
     7     -0.570025  1 C  px                77     -0.541827  6 F  s          
    62     -0.537375  5 F  s                 42     -0.464764  3 O  dxz        

 Vector   77  Occ=0.000000D+00  E= 2.047253D+00
              MO Center=  5.1D-01,  1.2D-03,  8.4D-02, r^2= 3.1D+00
   Bfn.  Coefficient  Atom+Function         Bfn.  Coefficient  Atom+Function  
  ----- ------------  ---------------      ----- ------------  ---------------
    23      2.018310  2 C  py                36     -1.999018  3 O  s          
    51      2.002231  4 O  s                 66     -0.868261  5 F  s          
    81      0.854206  6 F  s                101      0.713697  7 F  dxy        
    71      0.624207  5 F  dxy               86      0.622107  6 F  dxy        
   104     -0.619891  7 F  dyz               26     -0.538064  2 C  dxy        

 Vector   78  Occ=0.000000D+00  E= 2.099813D+00
              MO Center=  2.9D-01, -1.3D-03, -3.7D-01, r^2= 3.2D+00
   Bfn.  Coefficient  Atom+Function         Bfn.  Coefficient  Atom+Function  
  ----- ------------  ---------------      ----- ------------  ---------------
    23      2.905492  2 C  py                36     -2.490184  3 O  s          
    51      2.489065  4 O  s                  8     -1.058118  1 C  py         
    66      0.806095  5 F  s                 81     -0.804328  6 F  s          
    74      0.634366  5 F  dyz               89      0.634255  6 F  dyz        
    11      0.592750  1 C  dxy               32      0.528416  3 O  s          

 Vector   79  Occ=0.000000D+00  E= 2.112497D+00
              MO Center= -5.2D-01,  5.8D-04,  4.4D-02, r^2= 3.2D+00
   Bfn.  Coefficient  Atom+Function         Bfn.  Coefficient  Atom+Function  
  ----- ------------  ---------------      ----- ------------  ---------------
     7      2.194402  1 C  px                22      1.861104  2 C  px         
    21      1.805488  2 C  s                  6     -1.701850  1 C  s          
    41      0.756726  3 O  dxy               56     -0.756206  4 O  dxy        
    81     -0.624115  6 F  s                 66     -0.618742  5 F  s          
   102      0.546212  7 F  dxz               10     -0.441178  1 C  dxx        

 Vector   80  Occ=0.000000D+00  E= 2.147619D+00
              MO Center=  9.7D-01,  1.5D-03,  1.4D-01, r^2= 2.1D+00
   Bfn.  Coefficient  Atom+Function         Bfn.  Coefficient  Atom+Function  
  ----- ------------  ---------------      ----- ------------  ---------------
   104      1.051437  7 F  dyz               23      0.916504  2 C  py         
    36     -0.799394  3 O  s                 51      0.800279  4 O  s          
    75      0.443618  5 F  dzz               90     -0.442686  6 F  dzz        
    73     -0.408248  5 F  dyy               88      0.408855  6 F  dyy        
    74     -0.378523  5 F  dyz               89     -0.373952  6 F  dyz        

 Vector   81  Occ=0.000000D+00  E= 2.150148D+00
              MO Center=  5.0D-01, -1.4D-03,  1.0D-01, r^2= 2.3D+00
   Bfn.  Coefficient  Atom+Function         Bfn.  Coefficient  Atom+Function  
  ----- ------------  ---------------      ----- ------------  ---------------
     9      1.212582  1 C  pz                96     -0.830026  7 F  s          
     6     -0.800313  1 C  s                 66      0.775612  5 F  s          
    81      0.774879  6 F  s                 12      0.699440  1 C  dxz        
    21      0.638965  2 C  s                 22      0.475259  2 C  px         
    15      0.402738  1 C  dzz               13     -0.380346  1 C  dyy        

 Vector   82  Occ=0.000000D+00  E= 2.169861D+00
              MO Center=  3.4D-01, -6.4D-04, -7.8D-04, r^2= 2.5D+00
   Bfn.  Coefficient  Atom+Function         Bfn.  Coefficient  Atom+Function  
  ----- ------------  ---------------      ----- ------------  ---------------
    23     -2.307767  2 C  py                 8      2.226468  1 C  py         
    36      1.667564  3 O  s                 51     -1.667398  4 O  s          
    66     -1.552631  5 F  s                 81      1.553988  6 F  s          
    14     -0.945099  1 C  dyz               11      0.760864  1 C  dxy        
    98     -0.521424  7 F  py               101     -0.428183  7 F  dxy        

 Vector   83  Occ=0.000000D+00  E= 2.293276D+00
              MO Center= -6.5D-01, -2.4D-04,  9.6D-02, r^2= 2.8D+00
   Bfn.  Coefficient  Atom+Function         Bfn.  Coefficient  Atom+Function  
  ----- ------------  ---------------      ----- ------------  ---------------
    96      1.006491  7 F  s                 44      0.985746  3 O  dyz        
    59     -0.985854  4 O  dyz                9     -0.740389  1 C  pz         
     6     -0.674141  1 C  s                 12      0.613261  1 C  dxz        
   102      0.537711  7 F  dxz               24      0.526032  2 C  pz         
    21      0.504239  2 C  s                 92     -0.446402  7 F  s          

 Vector   84  Occ=0.000000D+00  E= 2.311769D+00
              MO Center= -1.6D-02,  1.3D-03,  8.0D-02, r^2= 3.1D+00
   Bfn.  Coefficient  Atom+Function         Bfn.  Coefficient  Atom+Function  
  ----- ------------  ---------------      ----- ------------  ---------------
    96      2.043883  7 F  s                  7     -1.786700  1 C  px         
    21     -1.621593  2 C  s                 66      1.421691  5 F  s          
    81      1.411065  6 F  s                  6     -1.103177  1 C  s          
    30      0.791512  2 C  dzz               92     -0.753604  7 F  s          
    22     -0.724662  2 C  px                 2      0.689954  1 C  s          

 Vector   85  Occ=0.000000D+00  E= 2.338894D+00
              MO Center=  2.9D-01,  1.7D-03, -7.6D-02, r^2= 2.8D+00
   Bfn.  Coefficient  Atom+Function         Bfn.  Coefficient  Atom+Function  
  ----- ------------  ---------------      ----- ------------  ---------------
     8      1.553764  1 C  py                66     -1.507915  5 F  s          
    81      1.503829  6 F  s                 11     -0.633690  1 C  dxy        
    62      0.571978  5 F  s                 77     -0.570594  6 F  s          
    98     -0.548702  7 F  py               101      0.489857  7 F  dxy        
    51      0.484338  4 O  s                 73      0.486613  5 F  dyy        

 Vector   86  Occ=0.000000D+00  E= 2.372803D+00
              MO Center=  2.8D-01, -2.5D-03, -2.1D-01, r^2= 2.8D+00
   Bfn.  Coefficient  Atom+Function         Bfn.  Coefficient  Atom+Function  
  ----- ------------  ---------------      ----- ------------  ---------------
     6      5.248175  1 C  s                 21     -3.348609  2 C  s          
    66     -1.897649  5 F  s                 81     -1.905478  6 F  s          
    22     -1.668513  2 C  px                 2     -1.570488  1 C  s          
     7     -1.286431  1 C  px                96     -0.895615  7 F  s          
    74     -0.712670  5 F  dyz               89      0.714962  6 F  dyz        

 Vector   87  Occ=0.000000D+00  E= 2.520016D+00
              MO Center= -3.4D-01,  4.3D-04, -2.7D-02, r^2= 2.6D+00
   Bfn.  Coefficient  Atom+Function         Bfn.  Coefficient  Atom+Function  
  ----- ------------  ---------------      ----- ------------  ---------------
    96      1.413104  7 F  s                 27      1.139872  2 C  dxz        
     9     -0.976854  1 C  pz                 6     -0.747960  1 C  s          
    44     -0.715972  3 O  dyz               59      0.715171  4 O  dyz        
    92     -0.651792  7 F  s                 21      0.491412  2 C  s          
    66     -0.477434  5 F  s                 81     -0.479584  6 F  s          

 Vector   88  Occ=0.000000D+00  E= 2.659302D+00
              MO Center=  7.1D-02, -3.4D-04,  1.4D-01, r^2= 2.7D+00
   Bfn.  Coefficient  Atom+Function         Bfn.  Coefficient  Atom+Function  
  ----- ------------  ---------------      ----- ------------  ---------------
     8      1.771436  1 C  py                23     -1.660295  2 C  py         
    66     -1.500223  5 F  s                 81      1.498444  6 F  s          
    36      1.169161  3 O  s                 51     -1.168791  4 O  s          
    26     -0.957362  2 C  dxy              104      0.893474  7 F  dyz        
    14      0.817453  1 C  dyz               62      0.579419  5 F  s          

 Vector   89  Occ=0.000000D+00  E= 2.768564D+00
              MO Center=  4.3D-01, -2.4D-07, -7.3D-02, r^2= 2.8D+00
   Bfn.  Coefficient  Atom+Function         Bfn.  Coefficient  Atom+Function  
  ----- ------------  ---------------      ----- ------------  ---------------
     6      2.640579  1 C  s                 66     -1.337252  5 F  s          
    81     -1.336303  6 F  s                 96     -1.273745  7 F  s          
    22     -1.023556  2 C  px                 7      0.932419  1 C  px         
    10      0.656036  1 C  dxx               99      0.554504  7 F  pz         
    71      0.539768  5 F  dxy               86     -0.539310  6 F  dxy        

 Vector   90  Occ=0.000000D+00  E= 2.771569D+00
              MO Center=  5.1D-01, -1.0D-03,  2.6D-02, r^2= 2.0D+00
   Bfn.  Coefficient  Atom+Function         Bfn.  Coefficient  Atom+Function  
  ----- ------------  ---------------      ----- ------------  ---------------
    12      1.449772  1 C  dxz               96     -1.019882  7 F  s          
     6      0.739214  1 C  s                  9      0.656721  1 C  pz         
    15     -0.520279  1 C  dzz               27      0.517723  2 C  dxz        
   102      0.496285  7 F  dxz              100      0.440900  7 F  dxx        
    13      0.418314  1 C  dyy               73      0.406894  5 F  dyy        

 Vector   91  Occ=0.000000D+00  E= 2.793014D+00
              MO Center= -1.1D+00,  8.1D-04, -4.0D-02, r^2= 1.9D+00
   Bfn.  Coefficient  Atom+Function         Bfn.  Coefficient  Atom+Function  
  ----- ------------  ---------------      ----- ------------  ---------------
    29      1.806834  2 C  dyz               44      1.020113  3 O  dyz        
    59      1.016833  4 O  dyz               42     -0.606696  3 O  dxz        
    57      0.607747  4 O  dxz               81     -0.376405  6 F  s          
    66      0.371969  5 F  s                 26      0.357626  2 C  dxy        
     8     -0.291815  1 C  py                 4     -0.274330  1 C  py         

 Vector   92  Occ=0.000000D+00  E= 2.920427D+00
              MO Center= -9.7D-01, -7.6D-04,  1.3D-02, r^2= 2.7D+00
   Bfn.  Coefficient  Atom+Function         Bfn.  Coefficient  Atom+Function  
  ----- ------------  ---------------      ----- ------------  ---------------
    36      1.816414  3 O  s                 51     -1.817703  4 O  s          
    23     -1.202727  2 C  py                19     -1.134523  2 C  py         
    41     -0.991792  3 O  dxy               56     -0.991978  4 O  dxy        
    38     -0.841777  3 O  py                53     -0.842746  4 O  py         
    14     -0.724397  1 C  dyz               32     -0.718847  3 O  s          

 Vector   93  Occ=0.000000D+00  E= 2.953688D+00
              MO Center= -9.0D-01,  1.0D-03, -2.7D-03, r^2= 3.2D+00
   Bfn.  Coefficient  Atom+Function         Bfn.  Coefficient  Atom+Function  
  ----- ------------  ---------------      ----- ------------  ---------------
    21      1.939615  2 C  s                 36     -1.872876  3 O  s          
    51     -1.869773  4 O  s                 17      1.292011  2 C  s          
    38      1.146913  3 O  py                53     -1.145592  4 O  py         
     6     -1.008382  1 C  s                 43     -0.817829  3 O  dyy        
    58     -0.817110  4 O  dyy               22     -0.789009  2 C  px         

 Vector   94  Occ=0.000000D+00  E= 3.015180D+00
              MO Center= -3.8D-01,  2.1D-03, -9.4D-02, r^2= 3.0D+00
   Bfn.  Coefficient  Atom+Function         Bfn.  Coefficient  Atom+Function  
  ----- ------------  ---------------      ----- ------------  ---------------
    26      1.460803  2 C  dxy               36      1.376789  3 O  s          
    51     -1.373647  4 O  s                 14      1.202829  1 C  dyz        
    23     -1.164265  2 C  py                19     -0.934308  2 C  py         
    38     -0.696059  3 O  py                43      0.691946  3 O  dyy        
    53     -0.694106  4 O  py                58     -0.690715  4 O  dyy        

 Vector   95  Occ=0.000000D+00  E= 3.044838D+00
              MO Center=  3.5D-01, -1.9D-03, -1.2D-01, r^2= 3.0D+00
   Bfn.  Coefficient  Atom+Function         Bfn.  Coefficient  Atom+Function  
  ----- ------------  ---------------      ----- ------------  ---------------
     6      2.864036  1 C  s                 66     -1.432800  5 F  s          
    81     -1.432852  6 F  s                 96     -1.039887  7 F  s          
    17      0.895681  2 C  s                 51     -0.842937  4 O  s          
    36     -0.834661  3 O  s                 22     -0.739629  2 C  px         
    71     -0.726486  5 F  dxy               86      0.727071  6 F  dxy        

 Vector   96  Occ=0.000000D+00  E= 3.083465D+00
              MO Center=  5.9D-01, -7.8D-04,  4.7D-01, r^2= 2.0D+00
   Bfn.  Coefficient  Atom+Function         Bfn.  Coefficient  Atom+Function  
  ----- ------------  ---------------      ----- ------------  ---------------
    96      1.358957  7 F  s                 99     -1.098277  7 F  pz         
   102      1.052113  7 F  dxz                5     -0.968504  1 C  pz         
    15     -0.941086  1 C  dzz              105      0.938836  7 F  dzz        
    12     -0.897821  1 C  dxz               92     -0.790541  7 F  s          
     9     -0.631310  1 C  pz                13      0.520182  1 C  dyy        

 Vector   97  Occ=0.000000D+00  E= 3.167459D+00
              MO Center=  3.3D-01, -6.1D-04, -2.6D-01, r^2= 2.5D+00
   Bfn.  Coefficient  Atom+Function         Bfn.  Coefficient  Atom+Function  
  ----- ------------  ---------------      ----- ------------  ---------------
    11      1.552631  1 C  dxy               26      1.146084  2 C  dxy        
    14     -1.037898  1 C  dyz                8      0.999744  1 C  py         
    66     -0.984112  5 F  s                 81      0.986035  6 F  s          
     4      0.838913  1 C  py                74      0.729155  5 F  dyz        
    89      0.732021  6 F  dyz               68      0.658795  5 F  py         

 Vector   98  Occ=0.000000D+00  E= 3.184658D+00
              MO Center= -7.9D-01,  8.1D-04, -1.9D-02, r^2= 2.6D+00
   Bfn.  Coefficient  Atom+Function         Bfn.  Coefficient  Atom+Function  
  ----- ------------  ---------------      ----- ------------  ---------------
    21      1.276582  2 C  s                 41      1.159287  3 O  dxy        
    56     -1.159689  4 O  dxy               28      1.085771  2 C  dyy        
    25     -0.962774  2 C  dxx               17      0.821577  2 C  s          
     6     -0.802154  1 C  s                 13     -0.598985  1 C  dyy        
    36     -0.592917  3 O  s                 51     -0.591847  4 O  s          

 Vector   99  Occ=0.000000D+00  E= 3.854102D+00
              MO Center= -1.2D+00,  4.7D-04,  1.2D-01, r^2= 3.3D+00
   Bfn.  Coefficient  Atom+Function         Bfn.  Coefficient  Atom+Function  
  ----- ------------  ---------------      ----- ------------  ---------------
    36      3.788898  3 O  s                 51      3.786395  4 O  s          
    96     -2.164516  7 F  s                 22      1.753248  2 C  px         
    21     -1.685749  2 C  s                  6     -1.342750  1 C  s          
    40     -1.274544  3 O  dxx               55     -1.273965  4 O  dxx        
    45     -1.173645  3 O  dzz               60     -1.172965  4 O  dzz        

 Vector  100  Occ=0.000000D+00  E= 4.190032D+00
              MO Center= -4.0D-01, -9.0D-06, -3.4D-02, r^2= 1.4D+00
   Bfn.  Coefficient  Atom+Function         Bfn.  Coefficient  Atom+Function  
  ----- ------------  ---------------      ----- ------------  ---------------
    17      1.987590  2 C  s                  2      1.904160  1 C  s          
    28     -1.903382  2 C  dyy               15     -1.398539  1 C  dzz        
    13     -1.364404  1 C  dyy               30     -1.237791  2 C  dzz        
    25     -1.210175  2 C  dxx               96      1.185169  7 F  s          
    10     -1.065543  1 C  dxx               51      0.989615  4 O  s          

 Vector  101  Occ=0.000000D+00  E= 4.318712D+00
              MO Center= -7.7D-01,  2.3D-04, -7.5D-02, r^2= 3.9D+00
   Bfn.  Coefficient  Atom+Function         Bfn.  Coefficient  Atom+Function  
  ----- ------------  ---------------      ----- ------------  ---------------
    36      6.133524  3 O  s                 51     -6.131546  4 O  s          
    23     -3.998299  2 C  py                66      3.602429  5 F  s          
    81     -3.602354  6 F  s                 45     -1.356003  3 O  dzz        
    60      1.355554  4 O  dzz               38     -1.219112  3 O  py         
    53     -1.218404  4 O  py                40     -1.162553  3 O  dxx        

 Vector  102  Occ=0.000000D+00  E= 4.485096D+00
              MO Center=  2.8D-01, -4.8D-01, -2.3D-01, r^2= 3.5D+00
   Bfn.  Coefficient  Atom+Function         Bfn.  Coefficient  Atom+Function  
  ----- ------------  ---------------      ----- ------------  ---------------
    81      7.340681  6 F  s                 51     -4.425243  4 O  s          
    66     -3.803856  5 F  s                 96     -3.346213  7 F  s          
    23     -3.270457  2 C  py                36      3.190799  3 O  s          
     8      2.512766  1 C  py                85     -2.138386  6 F  dxx        
    90     -1.957975  6 F  dzz               88     -1.894702  6 F  dyy        

 Vector  103  Occ=0.000000D+00  E= 4.485840D+00
              MO Center=  2.9D-01,  4.8D-01, -9.5D-03, r^2= 3.1D+00
   Bfn.  Coefficient  Atom+Function         Bfn.  Coefficient  Atom+Function  
  ----- ------------  ---------------      ----- ------------  ---------------
    66      6.338759  5 F  s                 96     -5.115823  7 F  s          
    36     -3.423315  3 O  s                 23      2.132772  2 C  py         
    70     -1.871181  5 F  dxx               21      1.705617  2 C  s          
    73     -1.711354  5 F  dyy               75     -1.704822  5 F  dzz        
     8     -1.644163  1 C  py               103      1.582126  7 F  dyy        

 Vector  104  Occ=0.000000D+00  E= 4.669365D+00
              MO Center=  1.2D-01,  2.3D-04,  2.9D-01, r^2= 2.6D+00
   Bfn.  Coefficient  Atom+Function         Bfn.  Coefficient  Atom+Function  
  ----- ------------  ---------------      ----- ------------  ---------------
    96      5.430050  7 F  s                 36      2.510906  3 O  s          
    51      2.507130  4 O  s                 66     -2.091166  5 F  s          
    81     -2.060583  6 F  s                  6     -1.778305  1 C  s          
   105     -1.561635  7 F  dzz                2     -1.536698  1 C  s          
   100     -1.540032  7 F  dxx              103     -1.497495  7 F  dyy        

 Vector  105  Occ=0.000000D+00  E= 5.310438D+00
              MO Center=  1.0D+00,  2.6D-04, -5.1D-02, r^2= 3.2D+00
   Bfn.  Coefficient  Atom+Function         Bfn.  Coefficient  Atom+Function  
  ----- ------------  ---------------      ----- ------------  ---------------
    66     -8.978632  5 F  s                 81     -8.975304  6 F  s          
     6      8.329287  1 C  s                 96     -8.211455  7 F  s          
    62      2.322931  5 F  s                 77      2.322221  6 F  s          
    75      2.140362  5 F  dzz               90      2.139201  6 F  dzz        
    70      2.110305  5 F  dxx               85      2.109405  6 F  dxx        


 center of mass
 --------------
 x =   0.05231527 y =  -0.00000730 z =   0.00074031

 moments of inertia (a.u.)
 ------------------
         471.158051876174           0.000383936883           0.147331738749
           0.000383936883         712.370573255479          -0.000062142342
           0.147331738749          -0.000062142342         864.175745099403

     Multipole analysis of the density
     ---------------------------------

     L   x y z        total         alpha         beta         nuclear
     -   - - -        -----         -----         ----         -------
     0   0 0 0     -1.000000    -28.000000    -28.000000     55.000000

     1   1 0 0      2.196977      1.098493      1.098493     -0.000009
     1   0 1 0      0.000085      0.000276      0.000276     -0.000467
     1   0 0 1     -0.049162     -0.024577     -0.024577     -0.000008

     2   2 0 0    -37.924708   -154.345257   -154.345257    270.765807
     2   1 1 0     -0.000174      0.000093      0.000093     -0.000359
     2   1 0 1      0.017241      0.008614      0.008614      0.000013
     2   0 2 0    -34.800368    -93.176196    -93.176196    151.552025
     2   0 1 1      0.000142      0.000057      0.000057      0.000028
     2   0 0 2    -27.768404    -51.706412    -51.706412     75.644419


------------------------------------------------------------
EAF file 0: "./CF3COOmWat_SMD_M062X.aoints.0" size=14680064 bytes
------------------------------------------------------------
               write      read    awrite     aread      wait
               -----      ----    ------     -----      ----
     calls:       28         1         0        27        27
   data(b): 1.47e+07  5.24e+05  0.00e+00  1.42e+07
   time(s): 0.00e+00  0.00e+00  0.00e+00  0.00e+00  0.00e+00
rate(mb/s): 0.00e+00  0.00e+00
------------------------------------------------------------


 Parallel integral file used     288 records with       0 large values


 Task  times  cpu:       11.2s     wall:       11.2s


                                NWChem Input Module
                                -------------------


 Summary of allocated global arrays
-----------------------------------
  No active global arrays



                         GA Statistics for process    0
                         ------------------------------

       create   destroy   get      put      acc     scatter   gather  read&inc
calls:  238      238     1.32e+04 1917     7232        0        0      439     
number of processes/call -2.03e+14 8.19e+13 1.62e+05 0.00e+00 0.00e+00
bytes total:             5.13e+07 8.05e+06 2.53e+07 0.00e+00 0.00e+00 3.51e+03
bytes remote:            2.95e+07 2.44e+06 1.59e+07 0.00e+00 0.00e+00 0.00e+00
Max memory consumed for GA by this process: 1122176 bytes

MA_summarize_allocated_blocks: starting scan ...
MA_summarize_allocated_blocks: scan completed: 0 heap blocks, 0 stack blocks
MA usage statistics:

	allocation statistics:
					      heap	     stack
					      ----	     -----
	current number of blocks	         0	         0
	maximum number of blocks	        25	        53
	current total bytes		         0	         0
	maximum total bytes		  66018968	  22514600
	maximum total K-bytes		     66019	     22515
	maximum total M-bytes		        67	        23


                                     CITATION
                                     --------
                Please cite the following reference when publishing
                           results obtained with NWChem:

          E. Apra, E. J. Bylaska, W. A. de Jong, N. Govind, K. Kowalski,
       T. P. Straatsma, M. Valiev, H. J. J. van Dam, Y. Alexeev, J. Anchell,
       V. Anisimov, F. W. Aquino, R. Atta-Fynn, J. Autschbach, N. P. Bauman,
     J. C. Becca, D. E. Bernholdt, K. Bhaskaran-Nair, S. Bogatko, P. Borowski,
         J. Boschen, J. Brabec, A. Bruner, E. Cauet, Y. Chen, G. N. Chuev,
      C. J. Cramer, J. Daily, M. J. O. Deegan, T. H. Dunning Jr., M. Dupuis,
   K. G. Dyall, G. I. Fann, S. A. Fischer, A. Fonari, H. Fruchtl, L. Gagliardi,
      J. Garza, N. Gawande, S. Ghosh, K. Glaesemann, A. W. Gotz, J. Hammond,
       V. Helms, E. D. Hermes, K. Hirao, S. Hirata, M. Jacquelin, L. Jensen,
   B. G. Johnson, H. Jonsson, R. A. Kendall, M. Klemm, R. Kobayashi, V. Konkov,
      S. Krishnamoorthy, M. Krishnan, Z. Lin, R. D. Lins, R. J. Littlefield,
      A. J. Logsdail, K. Lopata, W. Ma, A. V. Marenich, J. Martin del Campo,
   D. Mejia-Rodriguez, J. E. Moore, J. M. Mullin, T. Nakajima, D. R. Nascimento,
    J. A. Nichols, P. J. Nichols, J. Nieplocha, A. Otero-de-la-Roza, B. Palmer,
    A. Panyala, T. Pirojsirikul, B. Peng, R. Peverati, J. Pittner, L. Pollack,
   R. M. Richard, P. Sadayappan, G. C. Schatz, W. A. Shelton, D. W. Silverstein,
   D. M. A. Smith, T. A. Soares, D. Song, M. Swart, H. L. Taylor, G. S. Thomas,
            V. Tipparaju, D. G. Truhlar, K. Tsemekhman, T. Van Voorhis,
      A. Vazquez-Mayagoitia, P. Verma, O. Villa, A. Vishnu, K. D. Vogiatzis,
        D. Wang, J. H. Weare, M. J. Williamson, T. L. Windus, K. Wolinski,
        A. T. Wong, Q. Wu, C. Yang, Q. Yu, M. Zacharias, Z. Zhang, Y. Zhao,
                                and R. J. Harrison
                        "NWChem: Past, present, and future
                         J. Chem. Phys. 152, 184102 (2020)
                               doi:10.1063/5.0004997

                                      AUTHORS
                                      -------
     E. Apra, E. J. Bylaska, N. Govind, K. Kowalski, M. Valiev, W. A. de Jong,
      T. P. Straatsma, H. J. J. van Dam, D. Wang, T. L. Windus, N. P. Bauman,
       A. Panyala, J. Hammond, J. Autschbach, K. Bhaskaran-Nair, J. Brabec,
    K. Lopata, S. A. Fischer, S. Krishnamoorthy, M. Jacquelin, W. Ma, M. Klemm,
       O. Villa, Y. Chen, V. Anisimov, F. Aquino, S. Hirata, M. T. Hackler,
           Eric Hermes, L. Jensen, J. E. Moore, J. C. Becca, V. Konjkov,
            D. Mejia-Rodriguez, T. Risthaus, M. Malagoli, A. Marenich,
   A. Otero-de-la-Roza, J. Mullin, P. Nichols, R. Peverati, J. Pittner, Y. Zhao,
        P.-D. Fan, A. Fonari, M. J. Williamson, R. J. Harrison, J. R. Rehr,
      M. Dupuis, D. Silverstein, D. M. A. Smith, J. Nieplocha, V. Tipparaju,
      M. Krishnan, B. E. Van Kuiken, A. Vazquez-Mayagoitia, M. Swart, Q. Wu,
   T. Van Voorhis, A. A. Auer, M. Nooijen, L. D. Crosby, E. Brown, G. Cisneros,
     G. I. Fann, H. Fruchtl, J. Garza, K. Hirao, R. A. Kendall, J. A. Nichols,
       K. Tsemekhman, K. Wolinski, J. Anchell, D. E. Bernholdt, P. Borowski,
       T. Clark, D. Clerc, H. Dachsel, M. J. O. Deegan, K. Dyall, D. Elwood,
      E. Glendening, M. Gutowski, A. C. Hess, J. Jaffe, B. G. Johnson, J. Ju,
        R. Kobayashi, R. Kutteh, Z. Lin, R. Littlefield, X. Long, B. Meng,
      T. Nakajima, S. Niu, L. Pollack, M. Rosing, K. Glaesemann, G. Sandrone,
      M. Stave, H. Taylor, G. Thomas, J. H. van Lenthe, A. T. Wong, Z. Zhang.

 Total times  cpu:       11.3s     wall:       11.3s
