 
Processor list
 
cu03n[189-190]
 
ARMCI configured for 2 cluster nodes. Network protocol is 'OpenIB Verbs API'.
All connections between all procs tested: SUCCESS
 argument  1 = /mscf/home/d3p852/nwchem-5.1.1/QA/tests/tce_rcr2_eom_t_ozone/tce_rcr2_eom_t_ozone.nw



============================== echo of input deck ==============================
start tce_rcr2_eom_t_ozone

echo

##memory 3500 mb

geometry units bohr
  symmetry c2v
O   0.0000000000        0.0000000000        0.0000000000
O   0.0000000000       -2.0473224350       -1.2595211660
O   0.0000000000        2.0473224350       -1.2595211660
end

BASIS spherical
O    S
     10662.285000000      0.00079900
      1599.709700000      0.00615300
       364.725260000      0.03115700
       103.651790000      0.11559600
        33.905805000      0.30155200
O    S
        12.287469000      0.44487000
         4.756805000      0.24317200
O    S
         1.004271000      1.00000000
O    S
         0.300686000      1.00000000
O    S
         0.090030000      1.00000000
O    P
        34.856463000      0.01564800
         7.843131000      0.09819700
         2.306249000      0.30776800
         0.723164000      0.49247000
O    P
         0.214882000      1.00000000
O    P
         0.063850000      1.00000000
O    D
         2.306200000      0.20270000
         0.723200000      0.57910000
O    D
         0.214900000      0.78545000
         0.063900000      0.53387000
END

scf
thresh 1.0e-10
tol2e 1.0e-10
singlet
rhf
end

tce
freeze atomic
r-creom2(t)
tilesize 20
thresh 1.0d-6
nroots 2
end

task tce energy

================================================================================


                                         
                                         


              Northwest Computational Chemistry Package (NWChem) 6.0
              ------------------------------------------------------


                    Environmental Molecular Sciences Laboratory
                       Pacific Northwest National Laboratory
                                Richland, WA 99352

                              Copyright (c) 1994-2010
                       Pacific Northwest National Laboratory
                            Battelle Memorial Institute

             NWChem is an open-source computational chemistry package
                        distributed under the terms of the
                      Educational Community License (ECL) 2.0
             A copy of the license is included with this distribution
                              in the LICENSE.TXT file

                                  ACKNOWLEDGMENT
                                  --------------

            This software and its documentation were developed at the
            EMSL at Pacific Northwest National Laboratory, a multiprogram
            national laboratory, operated for the U.S. Department of Energy
            by Battelle under Contract Number DE-AC05-76RL01830. Support
            for this work was provided by the Department of Energy Office
            of Biological and Environmental Research, Office of Basic
            Energy Sciences, and the Office of Advanced Scientific Computing.


           Job information
           ---------------

    hostname      = cu3n189
    program       = /scratch/nwchem
    date          = Fri Oct 29 11:42:29 2010

    compiled      = Thu_Oct_28_07:10:53_2010
    source        = /home/scicons/user/kurt/nwchem-6.0-release-pgf90-final/
    nwchem branch = 6.0
    input         = /mscf/home/d3p852/nwchem-5.1.1/QA/tests/tce_rcr2_eom_t_ozone/tce_rcr2_eom_t_ozone.nw
    prefix        = tce_rcr2_eom_t_ozone.
    data base     = ./tce_rcr2_eom_t_ozone.db
    status        = startup
    nproc         =        8
    time left     =   1764s



           Memory information
           ------------------

    heap     =  104857601 doubles =    800.0 Mbytes
    stack    =  104857601 doubles =    800.0 Mbytes
    global   =  209715200 doubles =   1600.0 Mbytes (distinct from heap & stack)
    total    =  419430402 doubles =   3200.0 Mbytes
    verify   = yes
    hardfail = no 


           Directory information
           ---------------------

  0 permanent = .
  0 scratch   = .




                                NWChem Input Module
                                -------------------


 Turning off AUTOSYM since
 SYMMETRY directive was detected!


          ------
          auto-z
          ------


                             Geometry "geometry" -> ""
                             -------------------------

 Output coordinates in a.u. (scale by  1.000000000 to convert to a.u.)

  No.       Tag          Charge          X              Y              Z
 ---- ---------------- ---------- -------------- -------------- --------------
    1 O                    8.0000     0.00000000     0.00000000     0.83968078
    2 O                    8.0000     0.00000000    -2.04732244    -0.41984039
    3 O                    8.0000     0.00000000     2.04732244    -0.41984039

      Atomic Mass 
      ----------- 

      O                 15.994910


 Effective nuclear repulsion energy (a.u.)      68.8807220355

            Nuclear Dipole moment (a.u.) 
            ----------------------------
        X                 Y               Z
 ---------------- ---------------- ----------------
     0.0000000000     0.0000000000     0.0000000000

      Symmetry information
      --------------------

 Group name             C2v       
 Group number             16
 Group order               4
 No. of unique centers     2

      Symmetry unique atoms

     1    2



                                Z-matrix (autoz)
                                -------- 

 Units are Angstrom for bonds and degrees for angles

      Type          Name      I     J     K     L     M      Value
      ----------- --------  ----- ----- ----- ----- ----- ----------
    1 Stretch                  1     2                       1.27200
    2 Stretch                  1     3                       1.27200
    3 Bend                     2     1     3               116.80000


            XYZ format geometry
            -------------------
     3
 geometry
 O                     0.00000000     0.00000000     0.44433996
 O                     0.00000000    -1.08339645    -0.22216998
 O                     0.00000000     1.08339645    -0.22216998

 ==============================================================================
                                internuclear distances
 ------------------------------------------------------------------------------
       center one      |      center two      | atomic units |       a.u.
 ------------------------------------------------------------------------------
    2 O                |   1 O                |     2.40373  |     2.40373
    3 O                |   1 O                |     2.40373  |     2.40373
 ------------------------------------------------------------------------------
                         number of included internuclear distances:          2
 ==============================================================================



 ==============================================================================
                                 internuclear angles
 ------------------------------------------------------------------------------
        center 1       |       center 2       |       center 3       |  degrees
 ------------------------------------------------------------------------------
    2 O                |   1 O                |   3 O                |   116.80
 ------------------------------------------------------------------------------
                            number of included internuclear angles:          1
 ==============================================================================



  library name resolved from: environment
  library file name is: <
 /mscf/scicons/apps/nwchem-6.0.oct19//src/basis/libraries/>
  
                      Basis "ao basis" -> "" (spherical)
                      -----
  O (Oxygen)
  ----------
            Exponent  Coefficients 
       -------------- ---------------------------------------------------------
  1 S  1.06622850E+04  0.000799
  1 S  1.59970970E+03  0.006153
  1 S  3.64725260E+02  0.031157
  1 S  1.03651790E+02  0.115596
  1 S  3.39058050E+01  0.301552

  2 S  1.22874690E+01  0.444870
  2 S  4.75680500E+00  0.243172

  3 S  1.00427100E+00  1.000000

  4 S  3.00686000E-01  1.000000

  5 S  9.00300000E-02  1.000000

  6 P  3.48564630E+01  0.015648
  6 P  7.84313100E+00  0.098197
  6 P  2.30624900E+00  0.307768
  6 P  7.23164000E-01  0.492470

  7 P  2.14882000E-01  1.000000

  8 P  6.38500000E-02  1.000000

  9 D  2.30620000E+00  0.202700
  9 D  7.23200000E-01  0.579100

 10 D  2.14900000E-01  0.785450
 10 D  6.39000000E-02  0.533870



 Summary of "ao basis" -> "" (spherical)
 ------------------------------------------------------------------------------
       Tag                 Description            Shells   Functions and Types
 ---------------- ------------------------------  ------  ---------------------
 O                       user specified             10       24   5s3p2d


                                 NWChem SCF Module
                                 -----------------



  ao basis        = "ao basis"
  functions       =    72
  atoms           =     3
  closed shells   =    12
  open shells     =     0
  charge          =   0.00
  wavefunction    = RHF 
  input vectors   = atomic
  output vectors  = ./tce_rcr2_eom_t_ozone.movecs
  use symmetry    = T
  symmetry adapt  = T


 Summary of "ao basis" -> "ao basis" (spherical)
 ------------------------------------------------------------------------------
       Tag                 Description            Shells   Functions and Types
 ---------------- ------------------------------  ------  ---------------------
 O                       user specified             10       24   5s3p2d


      Symmetry analysis of basis
      --------------------------

        a1         29
        a2          9
        b1         12
        b2         22


 Forming initial guess at       1.8s


      Superposition of Atomic Density Guess
      -------------------------------------

 Sum of atomic energies:        -224.33629831

      Non-variational initial energy
      ------------------------------

 Total energy =    -224.636803
 1-e energy   =    -446.716128
 2-e energy   =     153.198603
 HOMO         =      -0.325374
 LUMO         =      -0.166284


      Symmetry analysis of molecular orbitals - initial
      -------------------------------------------------

  Numbering of irreducible representations: 

     1 a1          2 a2          3 b1          4 b2      

  Orbital symmetries:

     1 a1          2 b2          3 a1          4 a1          5 b2      
     6 a1          7 b2          8 a1          9 b1         10 a2      
    11 b2         12 a1         13 b1         14 b2         15 a1      
    16 a1         17 b1         18 a1         19 b2         20 a2      
    21 b1         22 a1      


 Starting SCF solution at       2.0s



 ----------------------------------------------
         Quadratically convergent ROHF

 Convergence threshold     :          1.000E-10
 Maximum no. of iterations :           30
 Final Fock-matrix accuracy:          1.000E-10
 ----------------------------------------------


 Integral file          = ./tce_rcr2_eom_t_ozone.aoints.0
 Record size in doubles =  65536        No. of integs per rec  =  43688
 Max. records in memory =      6        Max. records in file   = 169376
 No. of bits per label  =      8        No. of bits per value  =     64


 #quartets = 6.375D+04 #integrals = 9.973D+05 #direct =  0.0% #cached =100.0%


File balance: exchanges=     0  moved=     0  time=   0.0


              iter       energy          gnorm     gmax       time
             ----- ------------------- --------- --------- --------
                 1     -224.1518589385  1.89D+00  6.42D-01      1.0
                 2     -224.3121598851  4.03D-01  8.70D-02      1.0
                 3     -224.3273672684  2.13D-02  6.58D-03      1.1
                 4     -224.3274304257  1.63D-04  5.47D-05      1.2
                 5     -224.3274304292  5.24D-09  1.13D-09      1.4
                 6     -224.3274304292  9.52D-12  3.32D-12      1.5


       Final RHF  results 
       ------------------ 

         Total SCF energy =   -224.327430429201
      One-electron energy =   -445.079396986110
      Two-electron energy =    151.871244521426
 Nuclear repulsion energy =     68.880722035483

        Time for solution =      0.8s



       Symmetry analysis of molecular orbitals - final
       -----------------------------------------------

  Numbering of irreducible representations: 

     1 a1          2 a2          3 b1          4 b2      

  Orbital symmetries:

     1 a1          2 b2          3 a1          4 a1          5 b2      
     6 a1          7 a1          8 b2          9 b1         10 b2      
    11 a1         12 a2         13 b1         14 b2         15 a1      
    16 a1         17 b1         18 a1         19 b2         20 a2      
    21 b1         22 a1      

             Final eigenvalues
             -----------------

              1      
    1  -20.9188
    2  -20.7104
    3  -20.7103
    4   -1.7576
    5   -1.4376
    6   -1.0960
    7   -0.8365
    8   -0.8045
    9   -0.7857
   10   -0.5660
   11   -0.5551
   12   -0.4901
   13   -0.0495
   14    0.1106
   15    0.1132
   16    0.1336
   17    0.1606
   18    0.1960
   19    0.2041
   20    0.2118
   21    0.2210
   22    0.2576

                       ROHF Final Molecular Orbital Analysis
                       -------------------------------------

 Vector    3  Occ=2.000000D+00  E=-2.071030D+01  Symmetry=a1
              MO Center=  7.6D-29,  8.8D-11, -2.2D-01, r^2= 1.2D+00
   Bfn.  Coefficient  Atom+Function         Bfn.  Coefficient  Atom+Function  
  ----- ------------  ---------------      ----- ------------  ---------------
    50      0.469350  3 O  s                 26      0.469350  2 O  s          
    49      0.296450  3 O  s                 25      0.296450  2 O  s          

 Vector    4  Occ=2.000000D+00  E=-1.757565D+00  Symmetry=a1
              MO Center=  4.2D-18, -4.5D-16,  1.5D-01, r^2= 6.8D-01
   Bfn.  Coefficient  Atom+Function         Bfn.  Coefficient  Atom+Function  
  ----- ------------  ---------------      ----- ------------  ---------------
     3      0.420706  1 O  s                  4      0.375674  1 O  s          
    27      0.208910  2 O  s                 51      0.208910  3 O  s          
     2     -0.199503  1 O  s                 52      0.163760  3 O  s          
    28      0.163760  2 O  s          

 Vector    5  Occ=2.000000D+00  E=-1.437565D+00  Symmetry=b2
              MO Center= -2.9D-17, -1.0D-14, -2.0D-02, r^2= 1.2D+00
   Bfn.  Coefficient  Atom+Function         Bfn.  Coefficient  Atom+Function  
  ----- ------------  ---------------      ----- ------------  ---------------
    52      0.350477  3 O  s                 28     -0.350477  2 O  s          
    27     -0.337378  2 O  s                 51      0.337378  3 O  s          
     7      0.318777  1 O  py                50     -0.162850  3 O  s          
    26      0.162850  2 O  s          

 Vector    6  Occ=2.000000D+00  E=-1.096031D+00  Symmetry=a1
              MO Center= -2.7D-18,  6.8D-15,  3.7D-02, r^2= 1.6D+00
   Bfn.  Coefficient  Atom+Function         Bfn.  Coefficient  Atom+Function  
  ----- ------------  ---------------      ----- ------------  ---------------
     4      0.434830  1 O  s                 52     -0.357885  3 O  s          
    28     -0.357885  2 O  s                  3      0.355395  1 O  s          
    27     -0.305484  2 O  s                 51     -0.305484  3 O  s          
     8      0.223794  1 O  pz                 2     -0.159086  1 O  s          
     5      0.151327  1 O  s          

 Vector    7  Occ=2.000000D+00  E=-8.364700D-01  Symmetry=a1
              MO Center=  3.3D-16,  3.0D-14,  2.0D-01, r^2= 1.4D+00
   Bfn.  Coefficient  Atom+Function         Bfn.  Coefficient  Atom+Function  
  ----- ------------  ---------------      ----- ------------  ---------------
     8      0.557273  1 O  pz                55      0.302049  3 O  py         
    31     -0.302049  2 O  py                11      0.232326  1 O  pz         
    28      0.179971  2 O  s                 52      0.179971  3 O  s          

 Vector    8  Occ=2.000000D+00  E=-8.044974D-01  Symmetry=b2
              MO Center= -1.4D-16, -1.5D-14, -1.6D-01, r^2= 1.6D+00
   Bfn.  Coefficient  Atom+Function         Bfn.  Coefficient  Atom+Function  
  ----- ------------  ---------------      ----- ------------  ---------------
     7      0.476058  1 O  py                56      0.279803  3 O  pz         
    32     -0.279803  2 O  pz                28      0.278666  2 O  s          
    52     -0.278666  3 O  s                 31     -0.223425  2 O  py         
    55     -0.223425  3 O  py                10      0.186201  1 O  py         
    51     -0.182248  3 O  s                 27      0.182248  2 O  s          

 Vector    9  Occ=2.000000D+00  E=-7.856812D-01  Symmetry=b1
              MO Center= -2.4D-16,  7.1D-16,  1.7D-01, r^2= 1.0D+00
   Bfn.  Coefficient  Atom+Function         Bfn.  Coefficient  Atom+Function  
  ----- ------------  ---------------      ----- ------------  ---------------
     6      0.566944  1 O  px                54      0.302266  3 O  px         
    30      0.302266  2 O  px                 9      0.232434  1 O  px         

 Vector   10  Occ=2.000000D+00  E=-5.659631D-01  Symmetry=b2
              MO Center=  6.0D-17, -1.2D-13, -1.6D-01, r^2= 1.8D+00
   Bfn.  Coefficient  Atom+Function         Bfn.  Coefficient  Atom+Function  
  ----- ------------  ---------------      ----- ------------  ---------------
    32      0.399854  2 O  pz                56     -0.399854  3 O  pz         
    31     -0.395269  2 O  py                55     -0.395269  3 O  py         
    58     -0.195270  3 O  py                34     -0.195270  2 O  py         
    59     -0.185466  3 O  pz                35      0.185466  2 O  pz         

 Vector   11  Occ=2.000000D+00  E=-5.550580D-01  Symmetry=a1
              MO Center= -2.2D-16, -5.3D-14, -1.1D-01, r^2= 1.6D+00
   Bfn.  Coefficient  Atom+Function         Bfn.  Coefficient  Atom+Function  
  ----- ------------  ---------------      ----- ------------  ---------------
    56      0.494388  3 O  pz                32      0.494388  2 O  pz         
     8     -0.373877  1 O  pz                59      0.224913  3 O  pz         
    35      0.224913  2 O  pz                 4     -0.151929  1 O  s          

 Vector   12  Occ=2.000000D+00  E=-4.901442D-01  Symmetry=a2
              MO Center= -2.8D-17, -3.5D-15, -1.9D-01, r^2= 1.8D+00
   Bfn.  Coefficient  Atom+Function         Bfn.  Coefficient  Atom+Function  
  ----- ------------  ---------------      ----- ------------  ---------------
    54      0.522340  3 O  px                30     -0.522340  2 O  px         
    57      0.275875  3 O  px                33     -0.275875  2 O  px         

 Vector   13  Occ=0.000000D+00  E=-4.949680D-02  Symmetry=b1
              MO Center=  8.1D-17, -3.8D-16,  1.3D-03, r^2= 1.8D+00
   Bfn.  Coefficient  Atom+Function         Bfn.  Coefficient  Atom+Function  
  ----- ------------  ---------------      ----- ------------  ---------------
     6      0.546193  1 O  px                54     -0.416683  3 O  px         
    30     -0.416683  2 O  px                 9      0.380461  1 O  px         
    33     -0.290120  2 O  px                57     -0.290120  3 O  px         
    12      0.238809  1 O  px                60     -0.190344  3 O  px         
    36     -0.190344  2 O  px         

 Vector   14  Occ=0.000000D+00  E= 1.105798D-01  Symmetry=b2
              MO Center=  9.6D-18,  6.9D-15, -2.2D-01, r^2= 1.2D+01
   Bfn.  Coefficient  Atom+Function         Bfn.  Coefficient  Atom+Function  
  ----- ------------  ---------------      ----- ------------  ---------------
    29      4.377919  2 O  s                 53     -4.377919  3 O  s          
    13      2.270593  1 O  py                37      1.404025  2 O  py         
    61      1.404025  3 O  py                10      1.339377  1 O  py         
    62     -0.736413  3 O  pz                38      0.736413  2 O  pz         
    58      0.646061  3 O  py                34      0.646061  2 O  py         

 Vector   15  Occ=0.000000D+00  E= 1.132051D-01  Symmetry=a1
              MO Center=  2.6D-18, -4.7D-16,  1.0D+00, r^2= 9.6D+00
   Bfn.  Coefficient  Atom+Function         Bfn.  Coefficient  Atom+Function  
  ----- ------------  ---------------      ----- ------------  ---------------
     5      7.370703  1 O  s                 29     -3.684815  2 O  s          
    53     -3.684815  3 O  s                 14     -1.867082  1 O  pz         
    37     -1.170210  2 O  py                61      1.170210  3 O  py         
    38     -0.634202  2 O  pz                62     -0.634202  3 O  pz         
    11     -0.570728  1 O  pz                 4      0.548995  1 O  s          

 Vector   16  Occ=0.000000D+00  E= 1.335956D-01  Symmetry=a1
              MO Center= -6.9D-19,  2.6D-15, -3.4D-01, r^2= 9.7D+00
   Bfn.  Coefficient  Atom+Function         Bfn.  Coefficient  Atom+Function  
  ----- ------------  ---------------      ----- ------------  ---------------
     5      2.162064  1 O  s                 14      1.699532  1 O  pz         
    38     -1.123588  2 O  pz                62     -1.123588  3 O  pz         
    61      0.864871  3 O  py                37     -0.864871  2 O  py         
     4      0.413784  1 O  s                 45     -0.281415  2 O  d -1       
    69      0.281415  3 O  d -1              11     -0.208875  1 O  pz         

 Vector   17  Occ=0.000000D+00  E= 1.605990D-01  Symmetry=b1
              MO Center=  2.3D-16, -8.1D-17,  1.1D-01, r^2= 7.3D+00
   Bfn.  Coefficient  Atom+Function         Bfn.  Coefficient  Atom+Function  
  ----- ------------  ---------------      ----- ------------  ---------------
    36      0.459714  2 O  px                60      0.459714  3 O  px         
    12      0.452584  1 O  px                57     -0.254528  3 O  px         
    33     -0.254528  2 O  px         

 Vector   18  Occ=0.000000D+00  E= 1.960138D-01  Symmetry=a1
              MO Center=  1.4D-17, -8.8D-16, -6.4D-01, r^2= 8.4D+00
   Bfn.  Coefficient  Atom+Function         Bfn.  Coefficient  Atom+Function  
  ----- ------------  ---------------      ----- ------------  ---------------
    14      1.183008  1 O  pz                62     -0.841734  3 O  pz         
    38     -0.841734  2 O  pz                37      0.765987  2 O  py         
    61     -0.765987  3 O  py                 5     -0.512991  1 O  s          
    29      0.258291  2 O  s                 53      0.258291  3 O  s          
    35      0.206444  2 O  pz                59      0.206444  3 O  pz         

 Vector   19  Occ=0.000000D+00  E= 2.041025D-01  Symmetry=b2
              MO Center=  5.5D-18,  2.9D-15, -8.6D-02, r^2= 9.6D+00
   Bfn.  Coefficient  Atom+Function         Bfn.  Coefficient  Atom+Function  
  ----- ------------  ---------------      ----- ------------  ---------------
    62     -1.267885  3 O  pz                38      1.267885  2 O  pz         
    29     -0.681333  2 O  s                 53      0.681333  3 O  s          
    13     -0.603251  1 O  py                21      0.338857  1 O  d -1       
    35     -0.275053  2 O  pz                59      0.275053  3 O  pz         
    10     -0.260728  1 O  py                52      0.201912  3 O  s          

 Vector   20  Occ=0.000000D+00  E= 2.118017D-01  Symmetry=a2
              MO Center= -5.8D-18, -5.8D-16, -2.1D-01, r^2= 9.6D+00
   Bfn.  Coefficient  Atom+Function         Bfn.  Coefficient  Atom+Function  
  ----- ------------  ---------------      ----- ------------  ---------------
    36      1.408684  2 O  px                60     -1.408684  3 O  px         
    33     -0.228647  2 O  px                57      0.228647  3 O  px         

 Vector   21  Occ=0.000000D+00  E= 2.210118D-01  Symmetry=b1
              MO Center= -2.3D-17,  1.8D-16,  1.9D-01, r^2= 9.0D+00
   Bfn.  Coefficient  Atom+Function         Bfn.  Coefficient  Atom+Function  
  ----- ------------  ---------------      ----- ------------  ---------------
    12      3.420895  1 O  px                60     -1.847455  3 O  px         
    36     -1.847455  2 O  px                 9     -0.163308  1 O  px         
    68      0.155405  3 O  d -2              44     -0.155405  2 O  d -2       

 Vector   22  Occ=0.000000D+00  E= 2.575905D-01  Symmetry=a1
              MO Center= -6.9D-16,  4.3D-13,  8.3D-02, r^2= 5.7D+00
   Bfn.  Coefficient  Atom+Function         Bfn.  Coefficient  Atom+Function  
  ----- ------------  ---------------      ----- ------------  ---------------
    14      1.537295  1 O  pz                 5      1.516794  1 O  s          
    29     -1.011869  2 O  s                 53     -1.011869  3 O  s          
    62     -0.940286  3 O  pz                38     -0.940286  2 O  pz         
    24     -0.409592  1 O  d  2               4      0.320509  1 O  s          
    52      0.264570  3 O  s                 28      0.264570  2 O  s          

 Vector   23  Occ=0.000000D+00  E= 2.637839D-01  Symmetry=b2
              MO Center= -3.3D-16,  5.9D-13,  5.7D-02, r^2= 1.1D+01
   Bfn.  Coefficient  Atom+Function         Bfn.  Coefficient  Atom+Function  
  ----- ------------  ---------------      ----- ------------  ---------------
    13      5.919665  1 O  py                53     -3.092892  3 O  s          
    29      3.092892  2 O  s                 37     -1.966049  2 O  py         
    61     -1.966049  3 O  py                38      1.884514  2 O  pz         
    62     -1.884514  3 O  pz                10      0.416380  1 O  py         
    21     -0.342076  1 O  d -1              58      0.312769  3 O  py         

 Vector   24  Occ=0.000000D+00  E= 3.058948D-01  Symmetry=a1
              MO Center=  4.2D-18,  1.9D-15,  1.3D-01, r^2= 4.4D+00
   Bfn.  Coefficient  Atom+Function         Bfn.  Coefficient  Atom+Function  
  ----- ------------  ---------------      ----- ------------  ---------------
     5      7.674805  1 O  s                 53     -3.635869  3 O  s          
    29     -3.635869  2 O  s                 14     -1.260482  1 O  pz         
    37     -1.193981  2 O  py                61      1.193981  3 O  py         
    24     -0.493427  1 O  d  2              55     -0.375910  3 O  py         
    31      0.375910  2 O  py                69      0.367493  3 O  d -1       

 Vector   25  Occ=0.000000D+00  E= 3.630387D-01  Symmetry=b2
              MO Center=  1.1D-16,  5.5D-14, -1.0D-01, r^2= 5.9D+00
   Bfn.  Coefficient  Atom+Function         Bfn.  Coefficient  Atom+Function  
  ----- ------------  ---------------      ----- ------------  ---------------
    53      7.261900  3 O  s                 29     -7.261900  2 O  s          
    13     -3.395047  1 O  py                10     -2.349032  1 O  py         
    58     -1.323776  3 O  py                34     -1.323776  2 O  py         
    21      1.192436  1 O  d -1              38     -1.188966  2 O  pz         
    62      1.188966  3 O  pz                61     -1.052827  3 O  py         

 Vector   26  Occ=0.000000D+00  E= 4.155264D-01  Symmetry=a1
              MO Center=  1.2D-17, -4.8D-14,  3.1D-03, r^2= 6.7D+00
   Bfn.  Coefficient  Atom+Function         Bfn.  Coefficient  Atom+Function  
  ----- ------------  ---------------      ----- ------------  ---------------
     5     10.823796  1 O  s                 29     -5.288014  2 O  s          
    53     -5.288014  3 O  s                 38     -1.220325  2 O  pz         
    62     -1.220325  3 O  pz                61      1.019820  3 O  py         
    37     -1.019820  2 O  py                11     -0.752379  1 O  pz         
    35     -0.597370  2 O  pz                59     -0.597370  3 O  pz         

 Vector   27  Occ=0.000000D+00  E= 4.453959D-01  Symmetry=b1
              MO Center= -1.2D-16,  1.7D-13, -2.8D-01, r^2= 5.3D+00
   Bfn.  Coefficient  Atom+Function         Bfn.  Coefficient  Atom+Function  
  ----- ------------  ---------------      ----- ------------  ---------------
    12      1.118133  1 O  px                36     -0.621185  2 O  px         
    60     -0.621185  3 O  px                68     -0.523053  3 O  d -2       
    44      0.523053  2 O  d -2              47      0.374724  2 O  d  1       
    71      0.374724  3 O  d  1               9     -0.374060  1 O  px         

 Vector   28  Occ=0.000000D+00  E= 4.725105D-01  Symmetry=b2
              MO Center=  5.2D-17, -1.1D-13, -6.5D-02, r^2= 5.8D+00
   Bfn.  Coefficient  Atom+Function         Bfn.  Coefficient  Atom+Function  
  ----- ------------  ---------------      ----- ------------  ---------------
    29     -7.305257  2 O  s                 53      7.305257  3 O  s          
    13     -2.979421  1 O  py                10     -2.573437  1 O  py         
    34     -1.466481  2 O  py                58     -1.466481  3 O  py         
    37     -1.132442  2 O  py                61     -1.132442  3 O  py         
    35     -0.920064  2 O  pz                59      0.920064  3 O  pz         

 Vector   29  Occ=0.000000D+00  E= 4.861400D-01  Symmetry=a1
              MO Center= -5.0D-18, -1.8D-14,  5.2D-01, r^2= 5.7D+00
   Bfn.  Coefficient  Atom+Function         Bfn.  Coefficient  Atom+Function  
  ----- ------------  ---------------      ----- ------------  ---------------
     5     12.535535  1 O  s                 53     -6.088021  3 O  s          
    29     -6.088021  2 O  s                 14     -2.643495  1 O  pz         
    11     -1.657305  1 O  pz                58      1.393659  3 O  py         
    34     -1.393659  2 O  py                52     -1.214352  3 O  s          
    28     -1.214352  2 O  s                  4      0.953038  1 O  s          

 Vector   30  Occ=0.000000D+00  E= 5.389884D-01  Symmetry=b2
              MO Center=  1.9D-17,  5.3D-14, -3.7D-02, r^2= 5.6D+00
   Bfn.  Coefficient  Atom+Function         Bfn.  Coefficient  Atom+Function  
  ----- ------------  ---------------      ----- ------------  ---------------
    53      4.816203  3 O  s                 29     -4.816203  2 O  s          
    10     -3.666093  1 O  py                34     -1.935243  2 O  py         
    58     -1.935243  3 O  py                28     -1.794393  2 O  s          
    52      1.794393  3 O  s                 21      1.385048  1 O  d -1       
    59      1.149086  3 O  pz                35     -1.149086  2 O  pz         


 center of mass
 --------------
 x =   0.00000000 y =   0.00000000 z =   0.00000000

 moments of inertia (a.u.)
 ------------------
         151.002411350144           0.000000000000           0.000000000000
           0.000000000000          16.916148225582           0.000000000000
           0.000000000000           0.000000000000         134.086263124563

  Mulliken analysis of the total density
  --------------------------------------

    Atom       Charge   Shell Charges
 -----------   ------   -------------------------------------------------------
    1 O    8     7.71   0.76  1.22  0.94  0.95 -0.02  3.12  0.64 -0.01  0.11  0.01
    2 O    8     8.14   0.76  1.22  0.93  1.06  0.12  3.16  0.91 -0.01  0.04 -0.05
    3 O    8     8.14   0.76  1.22  0.93  1.06  0.12  3.16  0.91 -0.01  0.04 -0.05

       Multipole analysis of the density wrt the origin
       ------------------------------------------------

     L   x y z        total         open         nuclear
     -   - - -        -----         ----         -------
     0   0 0 0      0.000000      0.000000     24.000000

     1   1 0 0      0.000000      0.000000      0.000000
     1   0 1 0      0.000000      0.000000      0.000000
     1   0 0 1      0.306894      0.000000      0.000000

     2   2 0 0    -11.157779      0.000000      0.000000
     2   1 1 0      0.000000      0.000000      0.000000
     2   1 0 1      0.000000      0.000000      0.000000
     2   0 2 0    -12.831221      0.000000     67.064466
     2   0 1 1      0.000000      0.000000      0.000000
     2   0 0 2    -11.756375      0.000000      8.460766


 Parallel integral file used      24 records with       0 large values

                   NWChem Extensible Many-Electron Theory Module
                   ---------------------------------------------

              ======================================================
                   This portion of the program was automatically
                  generated by a Tensor Contraction Engine (TCE).
                  The development of this portion of the program
                 and TCE was supported by US Department of Energy,
                Office of Science, Office of Basic Energy Science.
                      TCE is a product of Battelle and PNNL.
              Please cite: S.Hirata, J.Phys.Chem.A 107, 9887 (2003).
              ======================================================

            General Information
            -------------------
      Number of processors :     8
         Wavefunction type : Restricted Hartree-Fock
          No. of electrons :    24
           Alpha electrons :    12
            Beta electrons :    12
           No. of orbitals :   144
            Alpha orbitals :    72
             Beta orbitals :    72
        Alpha frozen cores :     3
         Beta frozen cores :     3
     Alpha frozen virtuals :     0
      Beta frozen virtuals :     0
         Spin multiplicity : singlet 
    Number of AO functions :    72
       Number of AO shells :    30
        Use of symmetry is : on 
      Symmetry adaption is : on 
         Schwarz screening : 0.10D-09

          Correlation Information
          -----------------------
          Calculation type : Coupled-cluster singles & doubles w/ perturbation           
   Perturbative correction : reduced completely renormalized EOMCCSD(T)-II               
            Max iterations :      100
        Residual threshold : 0.10D-05
     T(0) DIIS level shift : 0.00D+00
     L(0) DIIS level shift : 0.00D+00
     T(1) DIIS level shift : 0.00D+00
     L(1) DIIS level shift : 0.00D+00
     T(R) DIIS level shift : 0.00D+00
     T(I) DIIS level shift : 0.00D+00
   CC-T/L Amplitude update :  5-th order DIIS
     No. of excited states :     2
               Target root :     1
           Target symmetry : none
      Symmetry restriction : off
   Dipole & oscillator str : off
                I/O scheme : Global Array Library

            Memory Information
            ------------------
          Available GA space size is    1677716416 doubles
          Available MA space size is     209709924 doubles

 Maximum block size supplied by input
 Maximum block size        20 doubles

 tile_dim =     18

 Block   Spin    Irrep     Size     Offset   Alpha
 -------------------------------------------------
   1    alpha     a1     4 doubles       0       1
   2    alpha     a2     1 doubles       4       2
   3    alpha     b1     1 doubles       5       3
   4    alpha     b2     3 doubles       6       4
   5    beta      a1     4 doubles       9       1
   6    beta      a2     1 doubles      13       2
   7    beta      b1     1 doubles      14       3
   8    beta      b2     3 doubles      15       4
   9    alpha     a1    11 doubles      18       9
  10    alpha     a1    12 doubles      29      10
  11    alpha     a2     8 doubles      41      11
  12    alpha     b1    11 doubles      49      12
  13    alpha     b2    18 doubles      60      13
  14    beta      a1    11 doubles      78       9
  15    beta      a1    12 doubles      89      10
  16    beta      a2     8 doubles     101      11
  17    beta      b1    11 doubles     109      12
  18    beta      b2    18 doubles     120      13

 Global array virtual files algorithm will be used

 Parallel file system coherency ......... OK

 Integral file          = ./tce_rcr2_eom_t_ozone.aoints.0
 Record size in doubles =  65536        No. of integs per rec  =  43688
 Max. records in memory =      6        Max. records in file   = 169376
 No. of bits per label  =      8        No. of bits per value  =     64


 #quartets = 1.036D+05 #integrals = 1.653D+06 #direct =  0.0% #cached =100.0%


File balance: exchanges=     0  moved=     0  time=   0.0


 Fock matrix recomputed
 1-e file size   =             1395
 1-e file name   = ./tce_rcr2_eom_t_ozo
 Cpu & wall time / sec            0.2            0.3

 tce_ao2e: fast2e=1
 half-transformed integrals in memory

 2-e (intermediate) file size =        53514432
 2-e (intermediate) file name = ./tce_rcr2_eom_t_ozo
 Cpu & wall time / sec            4.4            4.5

 tce_mo2e: fast2e=1
 2-e integrals stored in memory

 2-e file size   =          7970724
 2-e file name   = ./tce_rcr2_eom_t_ozo
 Cpu & wall time / sec            2.3            2.6
 do_pt =   F
 do_lam_pt =   F
 do_cr_pt =   F
 do_lcr_pt =   F
 do_2t_pt =   F
 T1-number-of-tasks                        5

 t1 file size   =              165
 t1 file name   = ./tce_rcr2_eom_t_ozo
 t1 file handle =       -999
 T2-number-of-boxes                      142

 t2 file size   =           112383
 t2 file name   = ./tce_rcr2_eom_t_ozo
 t2 file handle =       -996

 CCSD iterations
 -----------------------------------------------------------------
 Iter          Residuum       Correlation     Cpu    Wall    V2*C2
 -----------------------------------------------------------------
    1   0.2609153779782  -0.6556358352099     0.5     0.6     0.1
    2   0.0854505682307  -0.5999210435888     0.5     0.5     0.1
    3   0.0330027501615  -0.6345458462226     0.5     0.5     0.1
    4   0.0223062042497  -0.6259238774834     0.5     0.6     0.1
    5   0.0094141963557  -0.6321663040595     0.5     0.6     0.1
 MICROCYCLE DIIS UPDATE:                        5                        5
    6   0.0039078352475  -0.6316276484083     0.5     0.6     0.1
    7   0.0024212944545  -0.6316687917812     0.5     0.6     0.1
    8   0.0011908164222  -0.6317758513320     0.5     0.6     0.1
    9   0.0009707199544  -0.6317901059388     0.5     0.5     0.1
   10   0.0005110668544  -0.6318688356818     0.5     0.5     0.1
 MICROCYCLE DIIS UPDATE:                       10                        5
   11   0.0000917265263  -0.6319515485214     0.5     0.6     0.1
   12   0.0000392671077  -0.6319383149912     0.5     0.5     0.1
   13   0.0000205175130  -0.6319474620001     0.5     0.6     0.1
   14   0.0000133498057  -0.6319449208076     0.5     0.5     0.1
   15   0.0000076515963  -0.6319468964125     0.5     0.6     0.1
 MICROCYCLE DIIS UPDATE:                       15                        5
   16   0.0000030803915  -0.6319467215003     0.5     0.5     0.1
   17   0.0000017058590  -0.6319468392127     0.5     0.5     0.1
   18   0.0000008124139  -0.6319468192842     0.5     0.6     0.1
 -----------------------------------------------------------------
 Iterations converged
 CCSD correlation energy / hartree =        -0.631946819284234
 CCSD total energy / hartree       =      -224.959377248485000

 Singles contributions

 Doubles contributions
    13b1  (alpha)    13b1  (beta ) ---    12a2  (alpha)    12a2  (beta )       -0.1912204622

 Ground-state symmetry is a1  

 =========================================
 Excited-state calculation ( a1  symmetry)
 =========================================
 Dim. of EOMCC iter. space      500

 x1 file size   =              165

 x2 file size   =           112383
 EOMCCSD SOLVER TYPE 1

 No. of initial right vectors    2

 EOM-CCSD right-hand side iterations
 --------------------------------------------------------------
      Residuum       Omega / hartree  Omega / eV    Cpu    Wall
 --------------------------------------------------------------

 Iteration   1 using    2 trial vectors
   0.7028805223419   0.5584033373097   15.19493
   0.7125332746764   0.5780408546002   15.72930     1.6     1.8

 Iteration   2 using    4 trial vectors
   0.1330171076272   0.3952553078986   10.75545
   0.1361114962837   0.4063259172921   11.05670     1.4     1.5

 Iteration   3 using    6 trial vectors
   0.1005535613087   0.3848559215189   10.47247
   0.0786634755316   0.3973312571530   10.81194     1.2     1.5

 Iteration   4 using    8 trial vectors
   0.1002542299832   0.3720670280648   10.12446
   0.0614093017558   0.3907869427802   10.63386     1.3     1.5

 Iteration   5 using   10 trial vectors
   0.1081405249158   0.3570092988805    9.71472
   0.0566865528131   0.3858310312872   10.49900     1.3     1.5

 Iteration   6 using   12 trial vectors
   0.0858158599049   0.3495003882005    9.51039
   0.0541096603339   0.3835097248449   10.43584     1.3     1.6

 Iteration   7 using   14 trial vectors
   0.0538721636902   0.3413700922433    9.28916
   0.0467091359160   0.3792079823983   10.31878     1.3     1.6

 Iteration   8 using   16 trial vectors
   0.0383425107193   0.3399359379104    9.25013
   0.0371615982608   0.3771931119032   10.26395     1.4     1.7

 Iteration   9 using   18 trial vectors
   0.0455898758109   0.3377922302649    9.19180
   0.0606205177827   0.3744941733238   10.19051     1.4     1.7

 Iteration  10 using   20 trial vectors
   0.0475834483820   0.3359533426537    9.14176
   0.0910843847936   0.3657324861425    9.95209     1.4     1.8

 Iteration  11 using   22 trial vectors
   0.0327090338115   0.3347653080575    9.10943
   0.0582316326120   0.3588363344565    9.76444     1.4     1.8

 Iteration  12 using   24 trial vectors
   0.0302184346380   0.3340503225013    9.08998
   0.0493060447235   0.3563244662734    9.69609     1.5     1.9

 Iteration  13 using   26 trial vectors
   0.0329017389434   0.3334795679780    9.07444
   0.0550446892632   0.3525312771746    9.59287     1.5     1.9

 Iteration  14 using   28 trial vectors
   0.0250092209916   0.3335344169218    9.07594
   0.0490658213016   0.3503148479706    9.53256     1.5     1.9

 Iteration  15 using   30 trial vectors
   0.0216766573900   0.3329377519903    9.05970
   0.0397188502533   0.3480724603292    9.47154     1.5     2.0

 Iteration  16 using   32 trial vectors
   0.0140447049904   0.3333625762804    9.07126
   0.0270291240035   0.3474641894200    9.45499     1.6     2.1

 Iteration  17 using   34 trial vectors
   0.0073322970547   0.3331185212741    9.06462
   0.0141845721050   0.3469283809334    9.44041     1.6     2.1

 Iteration  18 using   36 trial vectors
   0.0036019501703   0.3332113813767    9.06715
   0.0072283844705   0.3469896564106    9.44207     1.6     2.1

 Iteration  19 using   38 trial vectors
   0.0019255697403   0.3331710539173    9.06605
   0.0039993438632   0.3469760765248    9.44170     1.6     2.2

 Iteration  20 using   40 trial vectors
   0.0010005156159   0.3331848824015    9.06643
   0.0022780984821   0.3470128527639    9.44270     1.6     2.2

 Iteration  21 using   42 trial vectors
   0.0004967255240   0.3331869248032    9.06648
   0.0011953569436   0.3470139103598    9.44273     1.7     2.3

 Iteration  22 using   44 trial vectors
   0.0002306534225   0.3331861554343    9.06646
   0.0005717617732   0.3470085533598    9.44259     1.7     2.3

 Iteration  23 using   46 trial vectors
   0.0001107230016   0.3331867562540    9.06648
   0.0002769575150   0.3470066741494    9.44254     1.8     2.3

 Iteration  24 using   48 trial vectors
   0.0000608026145   0.3331873974681    9.06649
   0.0001490086355   0.3470050724260    9.44249     1.8     2.4

 Iteration  25 using   50 trial vectors
   0.0000335203687   0.3331868341757    9.06648
   0.0000828710570   0.3470051231351    9.44249     1.7     2.4

 Iteration  26 using   52 trial vectors
   0.0000186034121   0.3331868279681    9.06648
   0.0000471192439   0.3470055694166    9.44251     1.9     2.5

 Iteration  27 using   54 trial vectors
   0.0000085990436   0.3331866556246    9.06647
   0.0000225782267   0.3470055956840    9.44251     2.0     2.5

 Iteration  28 using   56 trial vectors
   0.0000035022475   0.3331866271484    9.06647
   0.0000095107358   0.3470056414794    9.44251     2.0     2.6

 Iteration  29 using   58 trial vectors
   0.0000014492391   0.3331866277906    9.06647
   0.0000041190972   0.3470056090006    9.44251     1.9     2.6

 Iteration  30 using   60 trial vectors
   0.0000005756396   0.3331866255320    9.06647
   0.0000016848493   0.3470056045457    9.44251     1.9     2.5

 Iteration  31 using   61 trial vectors
   0.0000002338792   0.3331866267426    9.06647
   0.0000006690825   0.3470056005160    9.44251     1.1     1.5
 --------------------------------------------------------------
 Iterations converged
 largest EOMCCSD amplitudes: R1 and R2

 Singles contributions
    15a1  (alpha) ---    11a1  (alpha)        0.2765094242
    16a1  (alpha) ---    11a1  (alpha)        0.1770936027
    18a1  (alpha) ---    11a1  (alpha)       -0.1949493815
    24a1  (alpha) ---    11a1  (alpha)       -0.4766062407
    29a1  (alpha) ---    11a1  (alpha)        0.1454742468
    13b1  (alpha) ---     9b1  (alpha)       -0.4744581222

 Doubles contributions
    13b1  (alpha)    13b1  (beta ) ---    12a2  (alpha)    12a2  (beta )        0.4760405092
    13b1  (alpha)    13b1  (beta ) ---     9b1  (alpha)     9b1  (beta )       -0.1200163429

 Singles contributions
    15a1  (alpha) ---    11a1  (alpha)        0.2866800874
    24a1  (alpha) ---     7a1  (alpha)       -0.1029980738
    24a1  (alpha) ---    11a1  (alpha)       -0.2319729451
    13b1  (alpha) ---     9b1  (alpha)        0.4873902551

 Doubles contributions
    13b1  (alpha)    13b1  (beta ) ---    11a1  (alpha)    11a1  (beta )        0.3111807029
    13b1  (alpha)    13b1  (beta ) ---    12a2  (alpha)    12a2  (beta )       -0.5634153781
    13b1  (alpha)    13b1  (beta ) ---     9b1  (alpha)     9b1  (beta )        0.1310144776
    13b1  (alpha)    13b1  (beta ) ---    10b2  (alpha)    10b2  (beta )       -0.1962743884
 r-CR-EOMCCSD(T)-II total energy / hartree       =      -224.642753690115600
 delta-r-CR-EOMCCSD(T)-II         excitation energy (eV)       =      8.61577

 r-CR-EOMCCSD(T)-II total energy / hartree       =      -224.664702573721800
 delta-r-CR-EOMCCSD(T)-II         excitation energy (eV)       =      8.01851


 =========================================
 Excited-state calculation ( a2  symmetry)
 =========================================
 Dim. of EOMCC iter. space      500

 x1 file size   =              106

 x2 file size   =            95191
 EOMCCSD SOLVER TYPE 1

 No. of initial right vectors    2

 EOM-CCSD right-hand side iterations
 --------------------------------------------------------------
      Residuum       Omega / hartree  Omega / eV    Cpu    Wall
 --------------------------------------------------------------

 Iteration   1 using    2 trial vectors
   0.8958643824984   0.2925677835452    7.96118
   0.6183675684387   0.5539082951744   15.07262     1.5     1.6

 Iteration   2 using    4 trial vectors
   0.1738558552866   0.0944693999639    2.57064
   0.1316551991120   0.4203132953193   11.43731     1.3     1.4

 Iteration   3 using    6 trial vectors
   0.0722045332242   0.0864405931720    2.35217
   0.1054648258463   0.4103249790800   11.16552     1.3     1.4

 Iteration   4 using    8 trial vectors
   0.0273857040679   0.0851702022521    2.31760
   0.1158866603683   0.3982057017114   10.83573     1.3     1.4

 Iteration   5 using   10 trial vectors
   0.0131625362827   0.0845653684446    2.30114
   0.1222325507053   0.3719522751415   10.12134     1.3     1.5

 Iteration   6 using   12 trial vectors
   0.0061697291696   0.0844720157074    2.29860
   0.0789835687467   0.3658901367435    9.95638     1.4     1.5

 Iteration   7 using   14 trial vectors
   0.0021325930343   0.0844383383293    2.29769
   0.0518228651109   0.3564830833349    9.70040     1.4     1.5

 Iteration   8 using   16 trial vectors
   0.0008283102073   0.0844351208529    2.29760
   0.0517662400855   0.3564089403645    9.69838     1.4     1.6

 Iteration   9 using   18 trial vectors
   0.0002587582299   0.0844306071845    2.29747
   0.0597702153376   0.3490369538393    9.49778     1.4     1.6

 Iteration  10 using   20 trial vectors
   0.0000816055804   0.0844306275205    2.29748
   0.0392806918667   0.3453843649178    9.39839     1.4     1.7

 Iteration  11 using   22 trial vectors
   0.0000262565287   0.0844308487597    2.29748
   0.0253413990546   0.3430138635690    9.33389     1.5     1.7

 Iteration  12 using   24 trial vectors
   0.0000086691335   0.0844308633976    2.29748
   0.0158757161541   0.3418025179881    9.30092     1.5     1.7

 Iteration  13 using   26 trial vectors
   0.0000030011130   0.0844308350202    2.29748
   0.0115536968562   0.3412764354002    9.28661     1.5     1.8

 Iteration  14 using   28 trial vectors
   0.0000010684337   0.0844308246466    2.29748
   0.0081348626807   0.3408666346445    9.27546     1.5     1.8

 Iteration  15 using   30 trial vectors
   0.0000003451599   0.0844308210077    2.29748
   0.0043716240234   0.3408271387353    9.27438     1.5     1.8

 Iteration  16 using   31 trial vectors
   0.0000003448680   0.0844308210192    2.29748
   0.0029448803298   0.3407730397842    9.27291     0.9     1.1

 Iteration  17 using   32 trial vectors
   0.0000003454826   0.0844308209665    2.29748
   0.0021051332225   0.3407852985924    9.27324     0.9     1.2

 Iteration  18 using   33 trial vectors
   0.0000003448500   0.0844308208701    2.29748
   0.0010629628872   0.3407662494962    9.27273     0.9     1.1

 Iteration  19 using   34 trial vectors
   0.0000003437907   0.0844308207610    2.29748
   0.0005383705071   0.3407752937732    9.27297     0.9     1.2

 Iteration  20 using   35 trial vectors
   0.0000003438069   0.0844308207575    2.29748
   0.0003367955885   0.3407719480471    9.27288     0.9     1.2

 Iteration  21 using   36 trial vectors
   0.0000003436525   0.0844308208359    2.29748
   0.0002318984774   0.3407779609850    9.27304     0.9     1.2

 Iteration  22 using   37 trial vectors
   0.0000003431723   0.0844308208142    2.29748
   0.0001560886508   0.3407756438915    9.27298     0.9     1.2

 Iteration  23 using   38 trial vectors
   0.0000003422589   0.0844308208196    2.29748
   0.0000846310473   0.3407776703943    9.27304     0.9     1.2

 Iteration  24 using   39 trial vectors
   0.0000003417355   0.0844308208200    2.29748
   0.0000375280526   0.3407770554867    9.27302     0.9     1.2

 Iteration  25 using   40 trial vectors
   0.0000003416372   0.0844308208204    2.29748
   0.0000182465075   0.3407773877718    9.27303     0.9     1.3

 Iteration  26 using   41 trial vectors
   0.0000003411549   0.0844308208058    2.29748
   0.0000110161682   0.3407773909319    9.27303     1.0     1.3

 Iteration  27 using   42 trial vectors
   0.0000003410833   0.0844308208142    2.29748
   0.0000054792751   0.3407774227811    9.27303     1.0     1.3

 Iteration  28 using   43 trial vectors
   0.0000003412634   0.0844308208221    2.29748
   0.0000025899304   0.3407774396634    9.27303     1.0     1.3

 Iteration  29 using   44 trial vectors
   0.0000003412889   0.0844308208333    2.29748
   0.0000013712749   0.3407774416680    9.27303     1.0     1.3

 Iteration  30 using   45 trial vectors
   0.0000003403370   0.0844308207795    2.29748
   0.0000007261802   0.3407774451786    9.27303     0.9     1.2
 --------------------------------------------------------------
 Iterations converged
 largest EOMCCSD amplitudes: R1 and R2

 Singles contributions
    13b1  (alpha) ---    10b2  (alpha)       -0.8928255143

 Doubles contributions
    13b1  (alpha)    13b1  (beta ) ---    11a1  (alpha)    12a2  (beta )       -0.1794227034
    13b1  (alpha)    13b1  (beta ) ---    12a2  (alpha)    11a1  (beta )       -0.1794227034

 Singles contributions
    13b1  (alpha) ---     8b2  (alpha)       -0.7482083767
    13b1  (alpha) ---    10b2  (alpha)       -0.1238703343

 Doubles contributions
    13b1  (alpha)    13b1  (beta ) ---     7a1  (alpha)    12a2  (beta )       -0.1611309420
    13b1  (alpha)    13b1  (beta ) ---    11a1  (alpha)    12a2  (beta )        0.3499218526
    13b1  (alpha)    13b1  (beta ) ---    12a2  (alpha)     7a1  (beta )       -0.1611309420
    13b1  (alpha)    13b1  (beta ) ---    12a2  (alpha)    11a1  (beta )        0.3499218526
 r-CR-EOMCCSD(T)-II total energy / hartree       =      -224.875868525697000
 delta-r-CR-EOMCCSD(T)-II         excitation energy (eV)       =      2.27239

 r-CR-EOMCCSD(T)-II total energy / hartree       =      -224.647076169684200
 delta-r-CR-EOMCCSD(T)-II         excitation energy (eV)       =      8.49815


 =========================================
 Excited-state calculation ( b1  symmetry)
 =========================================
 Dim. of EOMCC iter. space      500

 x1 file size   =              109

 x2 file size   =            95431
 EOMCCSD SOLVER TYPE 1

 No. of initial right vectors    2

 EOM-CCSD right-hand side iterations
 --------------------------------------------------------------
      Residuum       Omega / hartree  Omega / eV    Cpu    Wall
 --------------------------------------------------------------

 Iteration   1 using    2 trial vectors
   0.8833188127483   0.2783035520142    7.57303
   0.6148721954381   0.5530202997069   15.04845     1.6     1.7

 Iteration   2 using    4 trial vectors
   0.1675688185937   0.0956011366911    2.60144
   0.1254271187470   0.4257212789416   11.58447     1.3     1.4

 Iteration   3 using    6 trial vectors
   0.0695504456648   0.0887998718038    2.41637
   0.0727442967327   0.4194049761818   11.41259     1.4     1.5

 Iteration   4 using    8 trial vectors
   0.0262896343766   0.0875226969719    2.38161
   0.0529143880448   0.4156901366741   11.31151     1.4     1.5

 Iteration   5 using   10 trial vectors
   0.0140281908623   0.0868505854223    2.36333
   0.0652660041742   0.4096758387481   11.14785     1.4     1.5

 Iteration   6 using   12 trial vectors
   0.0057904837462   0.0867700780278    2.36113
   0.1352882579774   0.4027565734263   10.95957     1.4     1.6

 Iteration   7 using   14 trial vectors
   0.0022569916533   0.0867353012638    2.36019
   0.1342303790750   0.3593324693348    9.77794     1.5     1.7

 Iteration   8 using   16 trial vectors
   0.0009278381278   0.0867362324157    2.36021
   0.0909371702811   0.3425801529666    9.32208     1.5     1.7

 Iteration   9 using   18 trial vectors
   0.0003139612895   0.0867350490270    2.36018
   0.0536812073106   0.3353741255458    9.12600     1.5     1.7

 Iteration  10 using   20 trial vectors
   0.0001153155490   0.0867356492546    2.36020
   0.0296050691354   0.3333504771580    9.07093     1.6     1.8

 Iteration  11 using   22 trial vectors
   0.0000460859697   0.0867362913347    2.36022
   0.0202138288642   0.3324846911911    9.04737     1.5     1.8

 Iteration  12 using   24 trial vectors
   0.0000157717733   0.0867363428073    2.36022
   0.0132229492963   0.3320912515085    9.03667     1.5     1.8

 Iteration  13 using   26 trial vectors
   0.0000053597048   0.0867362976152    2.36022
   0.0084972442759   0.3318245844164    9.02941     1.5     1.7

 Iteration  14 using   28 trial vectors
   0.0000018993262   0.0867363000444    2.36022
   0.0042980465609   0.3316703552428    9.02521     1.5     1.8

 Iteration  15 using   30 trial vectors
   0.0000006060004   0.0867362969506    2.36022
   0.0017698288025   0.3316291047363    9.02409     1.4     1.7

 Iteration  16 using   31 trial vectors
   0.0000005749747   0.0867362969077    2.36022
   0.0007644571362   0.3316130410977    9.02365     0.9     1.1

 Iteration  17 using   32 trial vectors
   0.0000005747878   0.0867362970350    2.36022
   0.0003656621259   0.3316183025716    9.02380     0.9     1.1

 Iteration  18 using   33 trial vectors
   0.0000005732790   0.0867362970971    2.36022
   0.0001810950477   0.3316161578156    9.02374     0.8     1.1

 Iteration  19 using   34 trial vectors
   0.0000005706156   0.0867362969318    2.36022
   0.0001001469423   0.3316174772565    9.02377     0.9     1.2

 Iteration  20 using   35 trial vectors
   0.0000005706773   0.0867362969240    2.36022
   0.0000517004789   0.3316159942104    9.02373     0.9     1.1

 Iteration  21 using   36 trial vectors
   0.0000005706740   0.0867362969108    2.36022
   0.0000236011918   0.3316162914099    9.02374     0.9     1.2

 Iteration  22 using   37 trial vectors
   0.0000005707545   0.0867362969065    2.36022
   0.0000108890513   0.3316161019575    9.02374     0.8     1.2

 Iteration  23 using   38 trial vectors
   0.0000005711518   0.0867362970193    2.36022
   0.0000054514758   0.3316162015955    9.02374     0.9     1.2

 Iteration  24 using   39 trial vectors
   0.0000005724908   0.0867362970753    2.36022
   0.0000026364828   0.3316161693439    9.02374     0.9     1.2

 Iteration  25 using   40 trial vectors
   0.0000005644089   0.0867362969804    2.36022
   0.0000010935952   0.3316161930967    9.02374     0.9     1.2

 Iteration  26 using   41 trial vectors
   0.0000005646694   0.0867362969546    2.36022
   0.0000004730969   0.3316161899650    9.02374     0.9     1.1
 --------------------------------------------------------------
 Iterations converged
 largest EOMCCSD amplitudes: R1 and R2

 Singles contributions
    13b1  (alpha) ---    11a1  (alpha)        0.9030595454

 Doubles contributions
    13b1  (alpha)    13b1  (beta ) ---    12a2  (alpha)    10b2  (beta )        0.1733334866
    13b1  (alpha)    13b1  (beta ) ---    10b2  (alpha)    12a2  (beta )        0.1733334866

 Singles contributions
    13b1  (alpha) ---     7a1  (alpha)       -0.8376864454
    13b1  (alpha) ---    11a1  (alpha)        0.1095337708

 Doubles contributions
    13b1  (alpha)    13b1  (beta ) ---    12a2  (alpha)     8b2  (beta )       -0.1133399040
    13b1  (alpha)    13b1  (beta ) ---    12a2  (alpha)    10b2  (beta )       -0.2647991448
    13b1  (alpha)    13b1  (beta ) ---     8b2  (alpha)    12a2  (beta )       -0.1133399040
    13b1  (alpha)    13b1  (beta ) ---    10b2  (alpha)    12a2  (beta )       -0.2647991448
 r-CR-EOMCCSD(T)-II total energy / hartree       =      -224.872801154582100
 delta-r-CR-EOMCCSD(T)-II         excitation energy (eV)       =      2.35586

 r-CR-EOMCCSD(T)-II total energy / hartree       =      -224.642437325886100
 delta-r-CR-EOMCCSD(T)-II         excitation energy (eV)       =      8.62438


 =========================================
 Excited-state calculation ( b2  symmetry)
 =========================================
 Dim. of EOMCC iter. space      500

 x1 file size   =              160

 x2 file size   =           106693
 EOMCCSD SOLVER TYPE 1

 No. of initial right vectors    2

 EOM-CCSD right-hand side iterations
 --------------------------------------------------------------
      Residuum       Omega / hartree  Omega / eV    Cpu    Wall
 --------------------------------------------------------------

 Iteration   1 using    2 trial vectors
   0.8265940620006   0.4589560047785   12.48883
   0.6497367546730   0.5842082663159   15.89712     1.5     1.7

 Iteration   2 using    4 trial vectors
   0.2807102778942   0.2213209061234    6.02245
   0.1465979183202   0.4439448941268   12.08036     1.3     1.4

 Iteration   3 using    6 trial vectors
   0.1178348620098   0.2034695751297    5.53669
   0.0720506647418   0.4378149971243   11.91356     1.4     1.5

 Iteration   4 using    8 trial vectors
   0.0593766291366   0.1991793471737    5.41995
   0.0550614576243   0.4357312974677   11.85686     1.4     1.5

 Iteration   5 using   10 trial vectors
   0.0228999328607   0.1986538613375    5.40565
   0.0811114948484   0.4307175728623   11.72043     1.4     1.6

 Iteration   6 using   12 trial vectors
   0.0129212879320   0.1981850121742    5.39289
   0.1322186557367   0.4185536794530   11.38943     1.4     1.6

 Iteration   7 using   14 trial vectors
   0.0059182358257   0.1982203363627    5.39385
   0.1379205099779   0.3925074316846   10.68068     1.4     1.7

 Iteration   8 using   16 trial vectors
   0.0032845188663   0.1981691636024    5.39246
   0.1028969071614   0.3795963387559   10.32935     1.5     1.7

 Iteration   9 using   18 trial vectors
   0.0017794867241   0.1981620912517    5.39227
   0.0934118720272   0.3684629440080   10.02639     1.5     1.7

 Iteration  10 using   20 trial vectors
   0.0009504759595   0.1981632265018    5.39230
   0.0951935605953   0.3580003048825    9.74169     1.5     1.8

 Iteration  11 using   22 trial vectors
   0.0003790955710   0.1981662529831    5.39238
   0.0587663118955   0.3501211084473    9.52728     1.5     1.8

 Iteration  12 using   24 trial vectors
   0.0001650995973   0.1981687350097    5.39245
   0.0405347282434   0.3475809840727    9.45816     1.5     1.8

 Iteration  13 using   26 trial vectors
   0.0000698568486   0.1981684080992    5.39244
   0.0289110624461   0.3467382280703    9.43523     1.6     1.9

 Iteration  14 using   28 trial vectors
   0.0000286283845   0.1981677554714    5.39242
   0.0184776375240   0.3459304532265    9.41325     1.6     1.9

 Iteration  15 using   30 trial vectors
   0.0000131497810   0.1981678156122    5.39242
   0.0119542903525   0.3456744026567    9.40628     1.7     2.0

 Iteration  16 using   32 trial vectors
   0.0000056866040   0.1981678055647    5.39242
   0.0074735839939   0.3455934045391    9.40408     1.7     2.0

 Iteration  17 using   34 trial vectors
   0.0000028823412   0.1981678276000    5.39242
   0.0054408715907   0.3455977344607    9.40420     1.7     2.1

 Iteration  18 using   36 trial vectors
   0.0000014735031   0.1981678303442    5.39242
   0.0053576020466   0.3455570251601    9.40309     1.7     2.1

 Iteration  19 using   38 trial vectors
   0.0000005913642   0.1981678267788    5.39242
   0.0045008561474   0.3454286052489    9.39959     1.7     2.0

 Iteration  20 using   39 trial vectors
   0.0000002988679   0.1981678269921    5.39242
   0.0024644465261   0.3454163631307    9.39926     1.0     1.3

 Iteration  21 using   40 trial vectors
   0.0000002489273   0.1981678265811    5.39242
   0.0014046037906   0.3454489687569    9.40015     1.1     1.4

 Iteration  22 using   41 trial vectors
   0.0000002442292   0.1981678265228    5.39242
   0.0007834388998   0.3454403161721    9.39991     1.0     1.4

 Iteration  23 using   42 trial vectors
   0.0000002446149   0.1981678264752    5.39242
   0.0004659949054   0.3454458976614    9.40007     1.0     1.4

 Iteration  24 using   43 trial vectors
   0.0000002452478   0.1981678265071    5.39242
   0.0002522863140   0.3454424864072    9.39997     1.1     1.4

 Iteration  25 using   44 trial vectors
   0.0000002453198   0.1981678265079    5.39242
   0.0001272644985   0.3454429395213    9.39998     1.1     1.4

 Iteration  26 using   45 trial vectors
   0.0000002431776   0.1981678264825    5.39242
   0.0000588120569   0.3454421715812    9.39996     1.1     1.4

 Iteration  27 using   46 trial vectors
   0.0000002432442   0.1981678264525    5.39242
   0.0000254433010   0.3454424365407    9.39997     1.1     1.5

 Iteration  28 using   47 trial vectors
   0.0000002428996   0.1981678263578    5.39242
   0.0000116170016   0.3454423285772    9.39997     1.1     1.5

 Iteration  29 using   48 trial vectors
   0.0000002430023   0.1981678264029    5.39242
   0.0000054841513   0.3454423363486    9.39997     1.0     1.5

 Iteration  30 using   49 trial vectors
   0.0000002430077   0.1981678264009    5.39242
   0.0000025609367   0.3454423519406    9.39997     1.1     1.5

 Iteration  31 using   50 trial vectors
   0.0000002439553   0.1981678263959    5.39242
   0.0000012812301   0.3454423605850    9.39997     1.1     1.5

 Iteration  32 using   51 trial vectors
   0.0000002444529   0.1981678264665    5.39242
   0.0000007198077   0.3454423684088    9.39997     0.9     1.3
 --------------------------------------------------------------
 Iterations converged
 largest EOMCCSD amplitudes: R1 and R2

 Singles contributions
    24a1  (alpha) ---    10b2  (alpha)       -0.1762424774
    13b1  (alpha) ---    12a2  (alpha)       -0.8099019406
    25b2  (alpha) ---    11a1  (alpha)        0.1381387253

 Doubles contributions
    13b1  (alpha)    13b1  (beta ) ---    12a2  (alpha)     9b1  (beta )        0.2804617470
    13b1  (alpha)    13b1  (beta ) ---     9b1  (alpha)    12a2  (beta )        0.2804617470

 Singles contributions
    15a1  (alpha) ---    10b2  (alpha)       -0.4032123370
    16a1  (alpha) ---    10b2  (alpha)       -0.1556059531
    18a1  (alpha) ---    10b2  (alpha)        0.3431719174
    24a1  (alpha) ---    10b2  (alpha)        0.6201693114
    29a1  (alpha) ---    10b2  (alpha)       -0.1601124433
    14b2  (alpha) ---    11a1  (alpha)        0.2081738422
    25b2  (alpha) ---    11a1  (alpha)        0.2265068095
    28b2  (alpha) ---    11a1  (alpha)       -0.1065661245

 Doubles contributions
 r-CR-EOMCCSD(T)-II total energy / hartree       =      -224.760429219375400
 delta-r-CR-EOMCCSD(T)-II         excitation energy (eV)       =      5.41365

 r-CR-EOMCCSD(T)-II total energy / hartree       =      -224.606870233438100
 delta-r-CR-EOMCCSD(T)-II         excitation energy (eV)       =      9.59221


 Parallel integral file used      41 records with       0 large values


 Task  times  cpu:      216.7s     wall:      257.3s


                                NWChem Input Module
                                -------------------


 Summary of allocated global arrays
-----------------------------------
  No active global arrays



                         GA Statistics for process    0
                         ------------------------------

       create   destroy   get      put      acc     scatter   gather  read&inc
calls: 5650     5650     1.41e+06 4298     1.86e+05    0        0        0     
number of processes/call 1.11e+00 1.80e+00 1.11e+00 0.00e+00 0.00e+00
bytes total:             1.72e+10 2.36e+08 1.74e+09 0.00e+00 0.00e+00 0.00e+00
bytes remote:            1.39e+10 2.04e+08 1.52e+09 0.00e+00 0.00e+00 0.00e+00
Max memory consumed for GA by this process: 61504992 bytes

MA_summarize_allocated_blocks: starting scan ...
MA_summarize_allocated_blocks: scan completed: 0 heap blocks, 0 stack blocks
MA usage statistics:

	allocation statistics:
					      heap	     stack
					      ----	     -----
	current number of blocks	         0	         0
	maximum number of blocks	        18	        41
	current total bytes		         0	         0
	maximum total bytes		   3185752	  22510640
	maximum total K-bytes		      3186	     22511
	maximum total M-bytes		         4	        23


                                     CITATION
                                     --------
                Please cite the following reference when publishing
                           results obtained with NWChem:

                 M. Valiev, E.J. Bylaska, N. Govind, K. Kowalski,
              T.P. Straatsma, H.J.J. van Dam, D. Wang, J. Nieplocha,
                        E. Apra, T.L. Windus, W.A. de Jong
                 "NWChem: a comprehensive and scalable open-source
                  solution for large scale molecular simulations"
                      Comput. Phys. Commun. 181, 1477 (2010)
                           doi:10.1016/j.cpc.2010.04.018

                              AUTHORS & CONTRIBUTORS
                              ----------------------
      E. J. Bylaska, W. A. de Jong, N. Govind, K. Kowalski, T. P. Straatsma,
     M. Valiev, H. J. J. van Dam, D. Wang, E. Apra, T. L. Windus, J. Hammond,
     J. Autschbach, P. Nichols, S. Hirata, M. T. Hackler, Y. Zhao, P.-D. Fan,
      R. J. Harrison, M. Dupuis, D. M. A. Smith, K. Glaesemann, J. Nieplocha,
      V. Tipparaju, M. Krishnan, A. Vazquez-Mayagoitia, L. Jensen, M. Swart,
      Q. Wu, T. Van Voorhis, A. A. Auer, M. Nooijen, L. D. Crosby, E. Brown,
             G. Cisneros, G. I. Fann, H. Fruchtl, J. Garza, K. Hirao,
        R. Kendall, J. A. Nichols, K. Tsemekhman, K. Wolinski, J. Anchell,
       D. Bernholdt, P. Borowski, T. Clark, D. Clerc, H. Dachsel, M. Deegan,
        K. Dyall, D. Elwood, E. Glendening, M. Gutowski, A. Hess, J. Jaffe,
        B. Johnson, J. Ju, R. Kobayashi, R. Kutteh, Z. Lin, R. Littlefield,
    X. Long, B. Meng, T. Nakajima, S. Niu, L. Pollack, M. Rosing, G. Sandrone,
       M. Stave, H. Taylor, G. Thomas, J. H. van Lenthe, A. Wong, Z. Zhang.

 Total times  cpu:      216.9s     wall:      259.1s
