running mpdallexit on parity
LAUNCHED mpd on parity  via  
RUNNING: mpd on parity
 argument  1 = carbon-fon.nw



============================== echo of input deck ==============================
echo

title "carbon"

memory 128 mb
#memory global 73 mb stack 20 mb heap 5 mb

start carbon

geometry units angstrom nocenter
symmetry c1
  C   0.0 0.0 0.0
end

basis
  * library 6-31G
end

scf
 direct
end

charge 0

dft
direct
grid xfine
convergence energy 1d-8
XC pbe0
fon partial 3 electrons 1.8 filled 2
end

#set dft:debugfon .true.

task dft energy

dft
odft
fon alpha partial 3 electrons 0.9 filled 2
fon beta partial 3 electrons 0.9 filled 2
end

task dft energy

dft
fon partial 6 electrons 1.8 filled 4
end

relativistic
 zora
end

task sodft energy

================================================================================


                                         
                                         


              Northwest Computational Chemistry Package (NWChem) 6.0
              ------------------------------------------------------


                    Environmental Molecular Sciences Laboratory
                       Pacific Northwest National Laboratory
                                Richland, WA 99352

                              Copyright (c) 1994-2010
                       Pacific Northwest National Laboratory
                            Battelle Memorial Institute

             NWChem is an open-source computational chemistry package
                        distributed under the terms of the
                      Educational Community License (ECL) 2.0
             A copy of the license is included with this distribution
                              in the LICENSE.TXT file

                                  ACKNOWLEDGMENT
                                  --------------

            This software and its documentation were developed at the
            EMSL at Pacific Northwest National Laboratory, a multiprogram
            national laboratory, operated for the U.S. Department of Energy
            by Battelle under Contract Number DE-AC05-76RL01830. Support
            for this work was provided by the Department of Energy Office
            of Biological and Environmental Research, Office of Basic
            Energy Sciences, and the Office of Advanced Scientific Computing.


           Job information
           ---------------

    hostname      = d12n16.ccr.buffalo.edu
    program       = /local/jochena/nwchem-svn/bin/LINUX64/nwchem
    date          = Fri Oct  7 14:17:07 2011

    compiled      = Fri_Oct_07_14:03:36_2011
    source        = /local/jochena/nwchem-svn
    nwchem branch = Development
    input         = carbon-fon.nw
    prefix        = carbon.
    data base     = ./carbon.db
    status        = startup
    nproc         =        2
    time left     =     -1s



           Memory information
           ------------------

    heap     =    4194305 doubles =     32.0 Mbytes
    stack    =    4194305 doubles =     32.0 Mbytes
    global   =    8388608 doubles =     64.0 Mbytes (distinct from heap & stack)
    total    =   16777218 doubles =    128.0 Mbytes
    verify   = yes
    hardfail = no 


           Directory information
           ---------------------

  0 permanent = .
  0 scratch   = .




                                NWChem Input Module
                                -------------------


                                      carbon
                                      ------
 ncenter=                    1

 Scaling coordinates for geometry "geometry" by  1.889725989
 (inverse scale =  0.529177249)



                             Geometry "geometry" -> ""
                             -------------------------

 Output coordinates in angstroms (scale by  1.889725989 to convert to a.u.)

  No.       Tag          Charge          X              Y              Z
 ---- ---------------- ---------- -------------- -------------- --------------
    1 C                    6.0000     0.00000000     0.00000000     0.00000000

      Atomic Mass 
      ----------- 

      C                 12.000000


 Effective nuclear repulsion energy (a.u.)       0.0000000000

            Nuclear Dipole moment (a.u.) 
            ----------------------------
        X                 Y               Z
 ---------------- ---------------- ----------------
     0.0000000000     0.0000000000     0.0000000000


            XYZ format geometry
            -------------------
     1
 geometry
 C                     0.00000000     0.00000000     0.00000000

  library name resolved from: environment
  library file name is: </local/jochena/nwchem-svn/src/basis/libraries/>
  


 Summary of "ao basis" -> "" (cartesian)
 ------------------------------------------------------------------------------
       Tag                 Description            Shells   Functions and Types
 ---------------- ------------------------------  ------  ---------------------
 *                           6-31G                    on all atoms 



                                 NWChem DFT Module
                                 -----------------


                                      carbon


                      Basis "ao basis" -> "ao basis" (cartesian)
                      -----
  C (Carbon)
  ----------
            Exponent  Coefficients 
       -------------- ---------------------------------------------------------
  1 S  3.04752490E+03  0.001835
  1 S  4.57369510E+02  0.014037
  1 S  1.03948690E+02  0.068843
  1 S  2.92101550E+01  0.232184
  1 S  9.28666300E+00  0.467941
  1 S  3.16392700E+00  0.362312

  2 S  7.86827240E+00 -0.119332
  2 S  1.88128850E+00 -0.160854
  2 S  5.44249300E-01  1.143456

  3 P  7.86827240E+00  0.068999
  3 P  1.88128850E+00  0.316424
  3 P  5.44249300E-01  0.744308

  4 S  1.68714400E-01  1.000000

  5 P  1.68714400E-01  1.000000



 Summary of "ao basis" -> "ao basis" (cartesian)
 ------------------------------------------------------------------------------
       Tag                 Description            Shells   Functions and Types
 ---------------- ------------------------------  ------  ---------------------
 C                           6-31G                   5        9   3s2p


  Caching 1-el integrals 
  itol2e modified to match energy
  convergence criterion.
  tol_rho modified to match energy
  convergence criterion.

            General Information
            -------------------
          SCF calculation type: DFT
          Wavefunction type:  closed shell.
          No. of atoms     :     1
          No. of electrons :     6
           Alpha electrons :     3
            Beta electrons :     3
          Charge           :     0
          Spin multiplicity:     1
          Use of symmetry is: off; symmetry adaption is: off
          Maximum number of iterations:  30
          This is a Direct SCF calculation.
          AO basis - number of functions:     9
                     number of shells:     5
          Convergence on energy requested: 1.00D-08
          Convergence on density requested: 1.00D-05
          Convergence on gradient requested: 5.00D-04

              XC Information
              --------------
                         PBE0 Method XC Functional
                     Hartree-Fock (Exact) Exchange  0.250          
          PerdewBurkeErnzerhof Exchange Functional  0.750          
            Perdew 1991 LDA Correlation Functional  1.000 local    
           PerdewBurkeErnz. Correlation Functional  1.000 non-local

             Grid Information
             ----------------
          Grid used for XC integration:  xfine     
          Radial quadrature: Mura-Knowles        
          Angular quadrature: Lebedev. 
          Tag              B.-S. Rad. Rad. Pts. Rad. Cut. Ang. Pts.
          ---              ---------- --------- --------- ---------
          C                   0.70      100           5.0      1454
          Grid pruning is: on 
          Number of quadrature shells:   100
          Spatial weights used:  Erf1

          Convergence Information
          -----------------------
          Convergence aids based upon iterative change in 
          total energy or number of iterations. 
          Levelshifting, if invoked, occurs when the 
          HOMO/LUMO gap drops below (HL_TOL): 1.00D-02
          DIIS, if invoked, will attempt to extrapolate 
          using up to (NFOCK): 10 stored Fock matrices.

                    Damping( 0%)  Levelshifting(0.5)       DIIS
                  --------------- ------------------- ---------------
          dE  on:    start            ASAP                start   
          dE off:    2 iters         30 iters            30 iters 


      Screening Tolerance Information
      -------------------------------
          Density screening/tol_rho: 1.00D-11
          AO Gaussian exp screening on grid/accAOfunc:  18
          CD Gaussian exp screening on grid/accCDfunc:  20
          XC Gaussian exp screening on grid/accXCfunc:  20
          Schwarz screening/accCoul: 1.00D-09


      Superposition of Atomic Density Guess
      -------------------------------------

 Sum of atomic energies:         -37.66025415

      Non-variational initial energy
      ------------------------------

 Total energy =     -37.298070
 1-e energy   =     -50.455020
 2-e energy   =      13.156950
 HOMO         =      -0.057689
 LUMO         =      -0.057689

   Time after variat. SCF:      0.0
     FON applied
     tr(P*S):    0.5800000E+01
   Time prior to 1st pass:      0.0
     FON applied
     tr(P*S):    0.5800000E+01

 Grid_pts file          = ./carbon.gridpts.0
 Record size in doubles =  12289        No. of grid_pts per rec  =   3070
 Max. records in memory =     28        Max. recs in file   = *********


           Memory utilization after 1st SCF pass: 
           Heap Space remaining (MW):        3.85             3849176
          Stack Space remaining (MW):        4.19             4194155

   convergence    iter        energy       DeltaE   RMS-Dens  Diis-err    time
 ---------------- ----- ----------------- --------- --------- ---------  ------
 d= 0,ls=0.0,diis     1    -37.6025154538 -3.76D+01  3.57D-02  5.00D-02     0.1
     FON applied
     tr(P*S):    0.5800000E+01
 d= 0,ls=0.5,diis     2    -37.6195751171 -1.71D-02  9.81D-03  1.05D-02     0.2
     FON applied
     tr(P*S):    0.5800000E+01
 d= 0,ls=0.5,diis     3    -37.6228827590 -3.31D-03  2.16D-03  5.88D-04     0.3
     FON applied
     tr(P*S):    0.5800000E+01
 d= 0,ls=0.5,diis     4    -37.6230325235 -1.50D-04  1.01D-03  1.06D-04     0.4
     FON applied
     tr(P*S):    0.5800000E+01
 d= 0,ls=0.5,diis     5    -37.6230647163 -3.22D-05  3.05D-04  1.01D-05     0.4
     FON applied
     tr(P*S):    0.5800000E+01
 d= 0,ls=0.5,diis     6    -37.6230687061 -3.99D-06  1.05D-04  1.30D-06     0.5
     FON applied
     tr(P*S):    0.5800000E+01
 d= 0,ls=0.5,diis     7    -37.6230693100 -6.04D-07  3.82D-05  1.74D-07     0.6
     FON applied
     tr(P*S):    0.5800000E+01
 d= 0,ls=0.5,diis     8    -37.6230694039 -9.40D-08  1.45D-05  2.47D-08     0.7
     FON applied
     tr(P*S):    0.5800000E+01
 d= 0,ls=0.5,diis     9    -37.6230694190 -1.50D-08  5.67D-06  3.69D-09     0.8
     FON applied
     tr(P*S):    0.5800000E+01
 d= 0,ls=0.5,diis    10    -37.6230694214 -2.45D-09  2.26D-06  5.71D-10     0.8
     FON applied
     tr(P*S):    0.5800000E+01


         Total DFT energy =      -37.623069421848
      One electron energy =      -49.815216487820
           Coulomb energy =       17.150428771340
    Exchange-Corr. energy =       -4.958281705368
 Nuclear repulsion energy =        0.000000000000

 Numeric. integr. density =        5.800000001164

     Total iterative time =      0.9s



                       DFT Final Molecular Orbital Analysis
                       ------------------------------------

 Vector    1  Occ=2.000000D+00  E=-1.048676D+01
              MO Center= -6.7D-17,  4.3D-17,  1.9D-17, r^2= 2.8D-02
   Bfn.  Coefficient  Atom+Function         Bfn.  Coefficient  Atom+Function  
  ----- ------------  ---------------      ----- ------------  ---------------
     1      0.995426  1 C  s          

 Vector    2  Occ=2.000000D+00  E=-6.461714D-01
              MO Center= -1.0D-16,  5.8D-17,  2.4D-16, r^2= 8.0D-01
   Bfn.  Coefficient  Atom+Function         Bfn.  Coefficient  Atom+Function  
  ----- ------------  ---------------      ----- ------------  ---------------
     6      0.566773  1 C  s                  2      0.507572  1 C  s          
     1     -0.232493  1 C  s          

 Vector    3  Occ=6.000000D-01  E=-2.397768D-01
              MO Center= -1.2D-17, -5.1D-17, -2.7D-16, r^2= 1.0D+00
   Bfn.  Coefficient  Atom+Function         Bfn.  Coefficient  Atom+Function  
  ----- ------------  ---------------      ----- ------------  ---------------
     5      0.626791  1 C  pz                 9      0.478275  1 C  pz         

 Vector    4  Occ=6.000000D-01  E=-2.397768D-01
              MO Center= -1.6D-16,  6.8D-17, -6.1D-18, r^2= 1.0D+00
   Bfn.  Coefficient  Atom+Function         Bfn.  Coefficient  Atom+Function  
  ----- ------------  ---------------      ----- ------------  ---------------
     3      0.584523  1 C  px                 7      0.446046  1 C  px         
     4     -0.256235  1 C  py                 8     -0.195531  1 C  py         

 Vector    5  Occ=6.000000D-01  E=-2.397768D-01
              MO Center= -2.1D-17, -4.8D-17,  1.0D-17, r^2= 1.0D+00
   Bfn.  Coefficient  Atom+Function         Bfn.  Coefficient  Atom+Function  
  ----- ------------  ---------------      ----- ------------  ---------------
     4      0.572676  1 C  py                 8      0.437005  1 C  py         
     3      0.255777  1 C  px                 7      0.195182  1 C  px         

 Vector    6  Occ=0.000000D+00  E= 4.798801D-01
              MO Center=  1.2D-16,  5.1D-16,  2.7D-15, r^2= 1.9D+00
   Bfn.  Coefficient  Atom+Function         Bfn.  Coefficient  Atom+Function  
  ----- ------------  ---------------      ----- ------------  ---------------
     9      1.094273  1 C  pz                 5     -1.016520  1 C  pz         
     8      0.208331  1 C  py                 4     -0.193528  1 C  py         

 Vector    7  Occ=0.000000D+00  E= 4.798801D-01
              MO Center=  3.0D-15, -4.3D-15,  6.9D-16, r^2= 1.9D+00
   Bfn.  Coefficient  Atom+Function         Bfn.  Coefficient  Atom+Function  
  ----- ------------  ---------------      ----- ------------  ---------------
     8      0.910820  1 C  py                 4     -0.846114  1 C  py         
     7     -0.626341  1 C  px                 3      0.581845  1 C  px         

 Vector    8  Occ=0.000000D+00  E= 4.798801D-01
              MO Center=  2.9D-15,  1.9D-15, -4.9D-16, r^2= 1.9D+00
   Bfn.  Coefficient  Atom+Function         Bfn.  Coefficient  Atom+Function  
  ----- ------------  ---------------      ----- ------------  ---------------
     7      0.921151  1 C  px                 3     -0.855711  1 C  px         
     8      0.608404  1 C  py                 4     -0.565182  1 C  py         
     9     -0.156448  1 C  pz         

 Vector    9  Occ=0.000000D+00  E= 5.320111D-01
              MO Center= -6.1D-15,  1.9D-15, -3.0D-15, r^2= 1.8D+00
   Bfn.  Coefficient  Atom+Function         Bfn.  Coefficient  Atom+Function  
  ----- ------------  ---------------      ----- ------------  ---------------
     2      1.650653  1 C  s                  6     -1.618144  1 C  s          


 Task  times  cpu:        0.9s     wall:        1.3s


                                NWChem Input Module
                                -------------------



                                 NWChem DFT Module
                                 -----------------


                                      carbon


  Caching 1-el integrals 

            General Information
            -------------------
          SCF calculation type: DFT
          Wavefunction type:  spin polarized.
          No. of atoms     :     1
          No. of electrons :     6
           Alpha electrons :     3
            Beta electrons :     3
          Charge           :     0
          Spin multiplicity:     1
          Use of symmetry is: off; symmetry adaption is: off
          Maximum number of iterations:  30
          This is a Direct SCF calculation.
          AO basis - number of functions:     9
                     number of shells:     5
          Convergence on energy requested: 1.00D-08
          Convergence on density requested: 1.00D-05
          Convergence on gradient requested: 5.00D-04

              XC Information
              --------------
                         PBE0 Method XC Functional
                     Hartree-Fock (Exact) Exchange  0.250          
          PerdewBurkeErnzerhof Exchange Functional  0.750          
            Perdew 1991 LDA Correlation Functional  1.000 local    
           PerdewBurkeErnz. Correlation Functional  1.000 non-local

             Grid Information
             ----------------
          Grid used for XC integration:  xfine     
          Radial quadrature: Mura-Knowles        
          Angular quadrature: Lebedev. 
          Tag              B.-S. Rad. Rad. Pts. Rad. Cut. Ang. Pts.
          ---              ---------- --------- --------- ---------
          C                   0.70      100           5.0      1454
          Grid pruning is: on 
          Number of quadrature shells:   100
          Spatial weights used:  Erf1

          Convergence Information
          -----------------------
          Convergence aids based upon iterative change in 
          total energy or number of iterations. 
          Levelshifting, if invoked, occurs when the 
          HOMO/LUMO gap drops below (HL_TOL): 1.00D-02
          DIIS, if invoked, will attempt to extrapolate 
          using up to (NFOCK): 10 stored Fock matrices.

                    Damping( 0%)  Levelshifting(0.5)       DIIS
                  --------------- ------------------- ---------------
          dE  on:    start            ASAP                start   
          dE off:    2 iters         30 iters            30 iters 


      Screening Tolerance Information
      -------------------------------
          Density screening/tol_rho: 1.00D-11
          AO Gaussian exp screening on grid/accAOfunc:  18
          CD Gaussian exp screening on grid/accCDfunc:  20
          XC Gaussian exp screening on grid/accXCfunc:  20
          Schwarz screening/accCoul: 1.00D-09

  movecs_read: failing reading from ./carbon.movecs
   Duplicating RHF/ROHF vectors for UHF

 Loading old vectors from job with title :

carbon

   Time after variat. SCF:      0.9
     FON applied
     tr(P*S):    0.2900000E+01
   Time prior to 1st pass:      0.9
     FON applied
     tr(P*S):    0.5800000E+01

 Grid_pts file          = ./carbon.gridpts.0
 Record size in doubles =  12289        No. of grid_pts per rec  =   3070
 Max. records in memory =     28        Max. recs in file   = *********


           Memory utilization after 1st SCF pass: 
           Heap Space remaining (MW):        3.85             3849156
          Stack Space remaining (MW):        4.19             4194127

   convergence    iter        energy       DeltaE   RMS-Dens  Diis-err    time
 ---------------- ----- ----------------- --------- --------- ---------  ------
 d= 0,ls=0.5,diis     1    -37.6230694218 -3.76D+01  5.53D-07  2.27D-11     1.0
                                                     5.53D-07  2.27D-11
     FON applied
     tr(P*S):    0.5800000E+01
 d= 0,ls=0.5,diis     2    -37.6230694219 -6.83D-11  2.23D-07  2.88D-12     1.2
                                                     2.23D-07  2.88D-12
     FON applied
     tr(P*S):    0.5800000E+01


         Total DFT energy =      -37.623069421927
      One electron energy =      -49.815200336932
           Coulomb energy =       17.150409884468
    Exchange-Corr. energy =       -4.958278969463
 Nuclear repulsion energy =        0.000000000000

 Numeric. integr. density =        5.800000001164

     Total iterative time =      0.4s



                    DFT Final Alpha Molecular Orbital Analysis
                    ------------------------------------------

 Vector    1  Occ=1.000000D+00  E=-1.048676D+01
              MO Center= -1.8D-17, -4.2D-18, -1.2D-18, r^2= 2.8D-02
   Bfn.  Coefficient  Atom+Function         Bfn.  Coefficient  Atom+Function  
  ----- ------------  ---------------      ----- ------------  ---------------
     1      0.995426  1 C  s          

 Vector    2  Occ=1.000000D+00  E=-6.461715D-01
              MO Center=  5.2D-17,  4.0D-17,  1.2D-16, r^2= 8.0D-01
   Bfn.  Coefficient  Atom+Function         Bfn.  Coefficient  Atom+Function  
  ----- ------------  ---------------      ----- ------------  ---------------
     6      0.566774  1 C  s                  2      0.507571  1 C  s          
     1     -0.232493  1 C  s          

 Vector    3  Occ=3.000000D-01  E=-2.397770D-01
              MO Center= -3.1D-18, -1.3D-17, -7.0D-17, r^2= 1.0D+00
   Bfn.  Coefficient  Atom+Function         Bfn.  Coefficient  Atom+Function  
  ----- ------------  ---------------      ----- ------------  ---------------
     5      0.626780  1 C  pz                 9      0.478287  1 C  pz         

 Vector    4  Occ=3.000000D-01  E=-2.397769D-01
              MO Center= -1.5D-16,  7.5D-17, -7.4D-18, r^2= 1.0D+00
   Bfn.  Coefficient  Atom+Function         Bfn.  Coefficient  Atom+Function  
  ----- ------------  ---------------      ----- ------------  ---------------
     3      0.574620  1 C  px                 7      0.438489  1 C  px         
     4     -0.277328  1 C  py                 8     -0.211627  1 C  py         

 Vector    5  Occ=3.000000D-01  E=-2.397769D-01
              MO Center= -1.1D-17, -2.3D-17,  4.8D-18, r^2= 1.0D+00
   Bfn.  Coefficient  Atom+Function         Bfn.  Coefficient  Atom+Function  
  ----- ------------  ---------------      ----- ------------  ---------------
     4      0.562764  1 C  py                 8      0.429441  1 C  py         
     3      0.277310  1 C  px                 7      0.211613  1 C  px         

 Vector    6  Occ=0.000000D+00  E= 4.798800D-01
              MO Center= -2.0D-16, -8.6D-16, -4.5D-15, r^2= 1.9D+00
   Bfn.  Coefficient  Atom+Function         Bfn.  Coefficient  Atom+Function  
  ----- ------------  ---------------      ----- ------------  ---------------
     9      1.094268  1 C  pz                 5     -1.016527  1 C  pz         
     8      0.208330  1 C  py                 4     -0.193530  1 C  py         

 Vector    7  Occ=0.000000D+00  E= 4.798800D-01
              MO Center=  6.0D-17,  8.3D-17, -1.8D-17, r^2= 1.9D+00
   Bfn.  Coefficient  Atom+Function         Bfn.  Coefficient  Atom+Function  
  ----- ------------  ---------------      ----- ------------  ---------------
     8      0.886894  1 C  py                 4     -0.823887  1 C  py         
     7      0.646239  1 C  px                 3     -0.600329  1 C  px         
     9     -0.197346  1 C  pz                 5      0.183326  1 C  pz         

 Vector    8  Occ=0.000000D+00  E= 4.798800D-01
              MO Center=  4.6D-15, -3.2D-15,  4.1D-16, r^2= 1.9D+00
   Bfn.  Coefficient  Atom+Function         Bfn.  Coefficient  Atom+Function  
  ----- ------------  ---------------      ----- ------------  ---------------
     7      0.907302  1 C  px                 3     -0.842846  1 C  px         
     8     -0.642782  1 C  py                 4      0.597118  1 C  py         

 Vector    9  Occ=0.000000D+00  E= 5.320110D-01
              MO Center= -4.3D-15,  3.8D-15,  4.1D-15, r^2= 1.8D+00
   Bfn.  Coefficient  Atom+Function         Bfn.  Coefficient  Atom+Function  
  ----- ------------  ---------------      ----- ------------  ---------------
     2      1.650653  1 C  s                  6     -1.618144  1 C  s          


                     DFT Final Beta Molecular Orbital Analysis
                     -----------------------------------------

 Vector    1  Occ=1.000000D+00  E=-1.048676D+01
              MO Center= -2.2D-17,  2.7D-18, -2.8D-18, r^2= 2.8D-02
   Bfn.  Coefficient  Atom+Function         Bfn.  Coefficient  Atom+Function  
  ----- ------------  ---------------      ----- ------------  ---------------
     1      0.995426  1 C  s          

 Vector    2  Occ=1.000000D+00  E=-6.461715D-01
              MO Center=  2.4D-16,  4.2D-17,  1.1D-16, r^2= 8.0D-01
   Bfn.  Coefficient  Atom+Function         Bfn.  Coefficient  Atom+Function  
  ----- ------------  ---------------      ----- ------------  ---------------
     6      0.566774  1 C  s                  2      0.507571  1 C  s          
     1     -0.232493  1 C  s          

 Vector    3  Occ=3.000000D-01  E=-2.397770D-01
              MO Center= -2.4D-18, -1.1D-17, -5.6D-17, r^2= 1.0D+00
   Bfn.  Coefficient  Atom+Function         Bfn.  Coefficient  Atom+Function  
  ----- ------------  ---------------      ----- ------------  ---------------
     5      0.626780  1 C  pz                 9      0.478287  1 C  pz         

 Vector    4  Occ=3.000000D-01  E=-2.397769D-01
              MO Center= -1.4D-16,  9.6D-17, -1.2D-17, r^2= 1.0D+00
   Bfn.  Coefficient  Atom+Function         Bfn.  Coefficient  Atom+Function  
  ----- ------------  ---------------      ----- ------------  ---------------
     3      0.521054  1 C  px                 7      0.397613  1 C  px         
     4     -0.366291  1 C  py                 8     -0.279514  1 C  py         

 Vector    5  Occ=3.000000D-01  E=-2.397769D-01
              MO Center= -1.5D-17, -2.0D-17,  4.5D-18, r^2= 1.0D+00
   Bfn.  Coefficient  Atom+Function         Bfn.  Coefficient  Atom+Function  
  ----- ------------  ---------------      ----- ------------  ---------------
     4      0.509357  1 C  py                 8      0.388687  1 C  py         
     3      0.368228  1 C  px                 7      0.280992  1 C  px         

 Vector    6  Occ=0.000000D+00  E= 4.798800D-01
              MO Center= -2.4D-16, -1.1D-15, -5.5D-15, r^2= 1.9D+00
   Bfn.  Coefficient  Atom+Function         Bfn.  Coefficient  Atom+Function  
  ----- ------------  ---------------      ----- ------------  ---------------
     9      1.094268  1 C  pz                 5     -1.016527  1 C  pz         
     8      0.208330  1 C  py                 4     -0.193530  1 C  py         

 Vector    7  Occ=0.000000D+00  E= 4.798800D-01
              MO Center=  3.6D-15,  2.0D-16, -2.0D-16, r^2= 1.9D+00
   Bfn.  Coefficient  Atom+Function         Bfn.  Coefficient  Atom+Function  
  ----- ------------  ---------------      ----- ------------  ---------------
     7      1.111629  1 C  px                 3     -1.032658  1 C  px         

 Vector    8  Occ=0.000000D+00  E= 4.798800D-01
              MO Center=  2.6D-16, -4.0D-15,  7.6D-16, r^2= 1.9D+00
   Bfn.  Coefficient  Atom+Function         Bfn.  Coefficient  Atom+Function  
  ----- ------------  ---------------      ----- ------------  ---------------
     8      1.093618  1 C  py                 4     -1.015926  1 C  py         
     9     -0.205057  1 C  pz                 5      0.190489  1 C  pz         

 Vector    9  Occ=0.000000D+00  E= 5.320110D-01
              MO Center= -3.7D-15,  4.8D-15,  4.9D-15, r^2= 1.8D+00
   Bfn.  Coefficient  Atom+Function         Bfn.  Coefficient  Atom+Function  
  ----- ------------  ---------------      ----- ------------  ---------------
     2      1.650653  1 C  s                  6     -1.618144  1 C  s          


   alpha - beta orbital overlaps 
   ----------------------------- 


   alpha      1      2      3      4      5      6      7      8      9
    beta      1      2      3      4      5      6      8      7      9
 overlap   1.000  1.000  1.000  0.986  0.986  1.000  0.776  0.776  1.000

     --------------------------
     Expectation value of S2:  
     --------------------------
      <S2> =      0.7300 (Exact =     0.0000)


 Task  times  cpu:        0.4s     wall:        0.4s


                                NWChem Input Module
                                -------------------



                                 NWChem DFT Module
                                 -----------------


                                      carbon


  WARNING: CD fitting not compatible with spinorbit
  WARNING: disabling CD fitting
                                  Spin-Orbit DFT
                                  --------------


  Caching 1-el integrals 

            General Information
            -------------------
          SCF calculation type: DFT
          Wavefunction type:  spin polarized.
          No. of atoms     :     1
          No. of electrons :     6
           Alpha electrons :     3
            Beta electrons :     3
          Charge           :     0
          Spin multiplicity:     1
          Use of symmetry is: off; symmetry adaption is: off
          Maximum number of iterations:  30
          This is a Direct SCF calculation.
          AO basis - number of functions:     9
                     number of shells:     5
          Convergence on energy requested: 1.00D-08
          Convergence on density requested: 1.00D-05
          Convergence on gradient requested: 5.00D-04

              XC Information
              --------------
                         PBE0 Method XC Functional
                     Hartree-Fock (Exact) Exchange  0.250          
          PerdewBurkeErnzerhof Exchange Functional  0.750          
            Perdew 1991 LDA Correlation Functional  1.000 local    
           PerdewBurkeErnz. Correlation Functional  1.000 non-local

             Grid Information
             ----------------
          Grid used for XC integration:  xfine     
          Radial quadrature: Mura-Knowles        
          Angular quadrature: Lebedev. 
          Tag              B.-S. Rad. Rad. Pts. Rad. Cut. Ang. Pts.
          ---              ---------- --------- --------- ---------
          C                   0.70      100           5.0      1454
          Grid pruning is: on 
          Number of quadrature shells:   100
          Spatial weights used:  Erf1

          Convergence Information
          -----------------------
          Convergence aids based upon iterative change in 
          total energy or number of iterations. 
          Levelshifting, if invoked, occurs when the 
          HOMO/LUMO gap drops below (HL_TOL): 1.00D-02
          DIIS, if invoked, will attempt to extrapolate 
          using up to (NFOCK): 10 stored Fock matrices.

                    Damping( 0%)  Levelshifting(0.5)       DIIS
                  --------------- ------------------- ---------------
          dE  on:    start            ASAP                start   
          dE off:    2 iters         30 iters            30 iters 


      Screening Tolerance Information
      -------------------------------
          Density screening/tol_rho: 1.00D-11
          AO Gaussian exp screening on grid/accAOfunc:  18
          CD Gaussian exp screening on grid/accCDfunc:  20
          XC Gaussian exp screening on grid/accXCfunc:  20
          Schwarz screening/accCoul: 1.00D-09

 Performing spin-orbit DFT (SO-DFT) calculations
 -----------------------------------------------

          Performing ZORA calculations
          ----------------------------


      Superposition of Atomic Density Guess
      -------------------------------------

 Sum of atomic energies:         -37.66025415

 Read atomic ZORA corrections from ./carbon.zora_so


 Loading old vectors from job with title :

carbon

  frac. electrons    5.7999999999999989       vs                     6
     FON applied
     tr(P*S):    0.5800000E+01
   Time prior to 1st pass:      1.3

 Grid_pts file          = ./carbon.gridpts.0
 Record size in doubles =  12289        No. of grid_pts per rec  =   3070
 Max. records in memory =     28        Max. recs in file   = *********

     FON applied
     tr(P*S):    0.5800000E+01

           Memory utilization after 1st SCF pass: 
           Heap Space remaining (MW):        3.85             3849232
          Stack Space remaining (MW):        4.19             4193242

   convergence    iter        energy       DeltaE   RMS-Dens  Diis-err    time
 ---------------- ----- ----------------- --------- --------- ---------  ------
 d= 0,ls=0.5,diis     1    -37.6456853095 -3.76D+01  1.03D-04  1.12D-05     1.4
                                                     1.03D-04  1.12D-05
     FON applied
     tr(P*S):    0.5800000E+01
 d= 0,ls=0.5,diis     2    -37.6456861262 -8.17D-07  1.40D-05  4.31D-08     1.6
                                                     1.40D-05  4.31D-08
     FON applied
     tr(P*S):    0.5800000E+01
 d= 0,ls=0.5,diis     3    -37.6456861474 -2.12D-08  5.09D-06  3.94D-09     1.7
                                                     5.09D-06  3.94D-09
     FON applied
     tr(P*S):    0.5800000E+01
 d= 0,ls=0.5,diis     4    -37.6456861508 -3.42D-09  1.47D-06  4.22D-10     1.9
                                                     1.47D-06  4.22D-10


         Total DFT energy =    -37.645686151303
      One electron energy =    -49.839589190675
           Coulomb energy =     17.152645080390
    Exchange-Corr. energy =     -4.958742041017
 Nuclear repulsion energy =      0.000000000000

       Scaling correction =      0.009027616073

 Numeric. integr. density =      5.800000001164

     Total iterative time =      0.7s



                       DFT Final Molecular Orbital Analysis
                       ------------------------------------

 Vector    2  Occ=1.000000D+00  E=-1.049213D+01
              MO Center= -1.0D-16, -5.5D-18,  7.4D-18, r^2= 2.6D-02
  Bfn.         Coefficient        Function           Bfn.         Coefficient        Function  
  ----     -------------------  ------------         ----     -------------------  ------------
     1    -0.972432   0.212537  1 C  s          

 Vector    3  Occ=1.000000D+00  E=-6.466567D-01
              MO Center= -2.6D-16,  9.4D-17,  2.9D-16, r^2= 8.0D-01
  Bfn.         Coefficient        Function           Bfn.         Coefficient        Function  
  ----     -------------------  ------------         ----     -------------------  ------------
     6     0.566172  -0.008892  1 C  s                  2     0.508056  -0.007980  1 C  s          
     1    -0.232220   0.003647  1 C  s          

 Vector    4  Occ=1.000000D+00  E=-6.466567D-01
              MO Center=  1.1D-20,  1.4D-20, -1.1D-20, r^2= 8.3D-08
  Bfn.         Coefficient        Function           Bfn.         Coefficient        Function  
  ----     -------------------  ------------         ----     -------------------  ------------
    15    -0.566242  -0.000174  1 C  s                 11    -0.508119  -0.000156  1 C  s          
    10     0.232249   0.000071  1 C  s          

 Vector    5  Occ=3.000000D-01  E=-2.398759D-01
              MO Center= -1.8D-16, -9.2D-26,  3.2D-18, r^2= 3.3D-01
  Bfn.         Coefficient        Function           Bfn.         Coefficient        Function  
  ----     -------------------  ------------         ----     -------------------  ------------
    14    -0.368689  -0.000000  1 C  pz                 4     0.000000  -0.368688  1 C  py         
     3     0.368688  -0.000000  1 C  px                18    -0.280904   0.000000  1 C  pz         
     8    -0.000000  -0.280904  1 C  py                 7     0.280904  -0.000000  1 C  px         

 Vector    6  Occ=3.000000D-01  E=-2.398759D-01
              MO Center= -7.5D-19, -9.3D-24, -9.4D-18, r^2= 7.6D-02
  Bfn.         Coefficient        Function           Bfn.         Coefficient        Function  
  ----     -------------------  ------------         ----     -------------------  ------------
     5    -0.175698  -0.324132  1 C  pz                13     0.324132  -0.175697  1 C  py         
    12    -0.175697  -0.324132  1 C  px                 9    -0.133864  -0.246957  1 C  pz         
    17     0.246956  -0.133864  1 C  py                16    -0.133864  -0.246956  1 C  px         

 Vector    7  Occ=3.000000D-01  E=-2.396163D-01
              MO Center=  4.5D-17, -1.8D-17, -5.4D-17, r^2= 3.1D-02
  Bfn.         Coefficient        Function           Bfn.         Coefficient        Function  
  ----     -------------------  ------------         ----     -------------------  ------------
     5    -0.084481   0.507166  1 C  pz                 9    -0.064480   0.387095  1 C  pz         
    13     0.260678   0.040129  1 C  py                12     0.044352  -0.246488  1 C  px         
    17     0.198964   0.030629  1 C  py                16     0.033852  -0.188133  1 C  px         

 Vector    8  Occ=3.000000D-01  E=-2.396163D-01
              MO Center= -8.3D-17, -1.1D-18, -4.1D-20, r^2= 1.5D-01
  Bfn.         Coefficient        Function           Bfn.         Coefficient        Function  
  ----     -------------------  ------------         ----     -------------------  ------------
    14     0.514154   0.000000  1 C  pz                18     0.392429  -0.000000  1 C  pz         
     4     0.003248  -0.263729  1 C  py                 3     0.250426  -0.003248  1 C  px         
     8     0.002479  -0.201292  1 C  py                 7     0.191138  -0.002479  1 C  px         

 Vector    9  Occ=3.000000D-01  E=-2.396163D-01
              MO Center= -5.4D-16,  3.0D-16, -3.3D-17, r^2= 4.9D-01
  Bfn.         Coefficient        Function           Bfn.         Coefficient        Function  
  ----     -------------------  ------------         ----     -------------------  ------------
     3     0.389538   0.215694  1 C  px                 4    -0.215694   0.387100  1 C  py         
     7     0.297316   0.164629  1 C  px                 8    -0.164629   0.295455  1 C  py         

 Vector   10  Occ=3.000000D-01  E=-2.396163D-01
              MO Center= -3.0D-18,  5.5D-19,  2.8D-20, r^2= 1.3D-02
  Bfn.         Coefficient        Function           Bfn.         Coefficient        Function  
  ----     -------------------  ------------         ----     -------------------  ------------
    12    -0.099832  -0.433932  1 C  px                13    -0.431589   0.100505  1 C  py         
    16    -0.076197  -0.331200  1 C  px                17    -0.329412   0.076710  1 C  py         

 Vector   11  Occ=0.000000D+00  E= 9.795211D-01
              MO Center= -1.1D-17,  3.5D-22,  1.0D-15, r^2= 4.6D-01
  Bfn.         Coefficient        Function           Bfn.         Coefficient        Function  
  ----     -------------------  ------------         ----     -------------------  ------------
     9     0.550074   0.334534  1 C  pz                17    -0.334534   0.550073  1 C  py         
    16     0.550073   0.334534  1 C  px                 5    -0.510780  -0.310637  1 C  pz         
    13     0.310637  -0.510780  1 C  py                12    -0.510780  -0.310637  1 C  px         

 Vector   12  Occ=0.000000D+00  E= 9.795211D-01
              MO Center= -2.1D-15, -2.0D-23, -1.6D-17, r^2= 6.3D-01
  Bfn.         Coefficient        Function           Bfn.         Coefficient        Function  
  ----     -------------------  ------------         ----     -------------------  ------------
    18     0.643812   0.000000  1 C  pz                 8    -0.000000   0.643811  1 C  py         
     7    -0.643811   0.000000  1 C  px                14    -0.597823  -0.000000  1 C  pz         
     4     0.000000  -0.597822  1 C  py                 3     0.597822  -0.000000  1 C  px         

 Vector   13  Occ=0.000000D+00  E= 9.799518D-01
              MO Center= -5.4D-16, -8.0D-17, -1.4D-15, r^2= 1.8D-01
  Bfn.         Coefficient        Function           Bfn.         Coefficient        Function  
  ----     -------------------  ------------         ----     -------------------  ------------
     9    -0.324215  -0.837059  1 C  pz                 5     0.301200   0.777637  1 C  pz         
    17    -0.425905   0.171166  1 C  py                16     0.153050   0.411155  1 C  px         
    13     0.395670  -0.159015  1 C  py                12    -0.142185  -0.381967  1 C  px         

 Vector   14  Occ=0.000000D+00  E= 9.799518D-01
              MO Center= -1.0D-15, -1.3D-17, -7.4D-18, r^2= 2.9D-01
  Bfn.         Coefficient        Function           Bfn.         Coefficient        Function  
  ----     -------------------  ------------         ----     -------------------  ------------
    18     0.897654   0.000000  1 C  pz                14    -0.833931  -0.000000  1 C  pz         
     8     0.005783  -0.458977  1 C  py                 7     0.438678  -0.005783  1 C  px         
     4    -0.005372   0.426395  1 C  py                 3    -0.407537   0.005372  1 C  px         

 Vector   15  Occ=0.000000D+00  E= 9.799518D-01
              MO Center= -2.2D-15, -5.6D-15,  1.2D-15, r^2= 9.5D-01
  Bfn.         Coefficient        Function           Bfn.         Coefficient        Function  
  ----     -------------------  ------------         ----     -------------------  ------------
     8     0.719753   0.285035  1 C  py                 7     0.282930  -0.719753  1 C  px         
     4    -0.668659  -0.264801  1 C  py                 3    -0.262845   0.668659  1 C  px         
     9    -0.149506  -0.022527  1 C  pz         

 Vector   16  Occ=0.000000D+00  E= 9.799518D-01
              MO Center= -9.4D-17,  1.5D-17,  1.3D-18, r^2= 3.4D-02
  Bfn.         Coefficient        Function           Bfn.         Coefficient        Function  
  ----     -------------------  ------------         ----     -------------------  ------------
    17    -0.754190   0.174608  1 C  py                16    -0.172526  -0.753876  1 C  px         
    13     0.700651  -0.162213  1 C  py                12     0.160278   0.700359  1 C  px         
    18     0.151193  -0.000000  1 C  pz         


   alpha - beta orbital overlaps 
   ----------------------------- 


   alpha      1      2      3      4      5      6      7      8      9
    beta      1      6      3      4      5      6      3      4      5
 overlap   1.045  0.287  0.037  0.037  0.037  0.321  0.028  0.028  0.028

     --------------------------
     Expectation value of S2:  
     --------------------------
      <S2> =      0.7300 (Exact =     0.0000)


 Task  times  cpu:        0.7s     wall:        0.8s
 Summary of allocated global arrays
-----------------------------------
  array 0 => double precision Movecs Re(9,9),  handle: -987 
  array 1 => double precision Movecs Im(9,9),  handle: -985 



                         GA Statistics for process    0
                         ------------------------------

       create   destroy   get      put      acc     scatter   gather  read&inc
calls:  971      969     3151     2114      960        0        0        0     
number of processes/call 1.21e+00 1.20e+00 1.04e+00 0.00e+00 0.00e+00
bytes total:             1.66e+06 8.77e+05 6.67e+05 0.00e+00 0.00e+00 0.00e+00
bytes remote:            2.67e+05 1.42e+05 1.04e+04 0.00e+00 0.00e+00 0.00e+00
Max memory consumed for GA by this process: 107784 bytes
MA_summarize_allocated_blocks: starting scan ...
MA_summarize_allocated_blocks: scan completed: 0 heap blocks, 0 stack blocks
MA usage statistics:

	allocation statistics:
					      heap	     stack
					      ----	     -----
	current number of blocks	         0	         0
	maximum number of blocks	        22	        53
	current total bytes		         0	         0
	maximum total bytes		   2760824	  22510112
	maximum total K-bytes		      2761	     22511
	maximum total M-bytes		         3	        23


                                NWChem Input Module
                                -------------------





                                     CITATION
                                     --------
                Please cite the following reference when publishing
                           results obtained with NWChem:

                 M. Valiev, E.J. Bylaska, N. Govind, K. Kowalski,
              T.P. Straatsma, H.J.J. van Dam, D. Wang, J. Nieplocha,
                        E. Apra, T.L. Windus, W.A. de Jong
                 "NWChem: a comprehensive and scalable open-source
                  solution for large scale molecular simulations"
                      Comput. Phys. Commun. 181, 1477 (2010)
                           doi:10.1016/j.cpc.2010.04.018

                              AUTHORS & CONTRIBUTORS
                              ----------------------
      E. J. Bylaska, W. A. de Jong, N. Govind, K. Kowalski, T. P. Straatsma,
     M. Valiev, H. J. J. van Dam, D. Wang, E. Apra, T. L. Windus, J. Hammond,
     J. Autschbach, F. Aquino, P. Nichols, S. Hirata, M. T. Hackler, Y. Zhao,
       P.-D. Fan, R. J. Harrison, M. Dupuis, D. M. A. Smith, K. Glaesemann,
    J. Nieplocha, V. Tipparaju, M. Krishnan, A. Vazquez-Mayagoitia, L. Jensen,
      M. Swart, Q. Wu, T. Van Voorhis, A. A. Auer, M. Nooijen, L. D. Crosby,
        E. Brown, G. Cisneros, G. I. Fann, H. Fruchtl, J. Garza, K. Hirao,
        R. Kendall, J. A. Nichols, K. Tsemekhman, K. Wolinski, J. Anchell,
       D. Bernholdt, P. Borowski, T. Clark, D. Clerc, H. Dachsel, M. Deegan,
        K. Dyall, D. Elwood, E. Glendening, M. Gutowski, A. Hess, J. Jaffe,
        B. Johnson, J. Ju, R. Kobayashi, R. Kutteh, Z. Lin, R. Littlefield,
    X. Long, B. Meng, T. Nakajima, S. Niu, L. Pollack, M. Rosing, G. Sandrone,
       M. Stave, H. Taylor, G. Thomas, J. H. van Lenthe, A. Wong, Z. Zhang.

 Total times  cpu:        2.0s     wall:        2.8s
