 
Processor list
 
cu05n[185-186]
 
ARMCI configured for 2 cluster nodes. Network protocol is 'OpenIB Verbs API'.
All connections between all procs tested: SUCCESS
 argument  1 = /mscf/home/d3p852/nwchem-5.1.1/QA/tests/ch3_m06-hf/ch3.nw



============================== echo of input deck ==============================
echo
title "M06-HF/6-31+G* CH3 force "

start ch3

geometry
     C     0.000000    0.000000    0.000000
     H     0.000000    1.078410    0.000000
     H     0.933930   -0.539205    0.000000
     H    -0.933930   -0.539205    0.000000
end

basis
* library 6-31+G*
end

dft
xc  m06-hf
mult 2
grid fine
end

task dft  gradient
================================================================================


                                         
                                         


              Northwest Computational Chemistry Package (NWChem) 6.0
              ------------------------------------------------------


                    Environmental Molecular Sciences Laboratory
                       Pacific Northwest National Laboratory
                                Richland, WA 99352

                              Copyright (c) 1994-2010
                       Pacific Northwest National Laboratory
                            Battelle Memorial Institute

             NWChem is an open-source computational chemistry package
                        distributed under the terms of the
                      Educational Community License (ECL) 2.0
             A copy of the license is included with this distribution
                              in the LICENSE.TXT file

                                  ACKNOWLEDGMENT
                                  --------------

            This software and its documentation were developed at the
            EMSL at Pacific Northwest National Laboratory, a multiprogram
            national laboratory, operated for the U.S. Department of Energy
            by Battelle under Contract Number DE-AC05-76RL01830. Support
            for this work was provided by the Department of Energy Office
            of Biological and Environmental Research, Office of Basic
            Energy Sciences, and the Office of Advanced Scientific Computing.


           Job information
           ---------------

    hostname      = cu5n185
    program       = /scratch/nwchem
    date          = Fri Oct 29 11:31:04 2010

    compiled      = Thu_Oct_28_07:10:53_2010
    source        = /home/scicons/user/kurt/nwchem-6.0-release-pgf90-final/
    nwchem branch = 6.0
    input         = /mscf/home/d3p852/nwchem-5.1.1/QA/tests/ch3_m06-hf/ch3.nw
    prefix        = ch3.
    data base     = ./ch3.db
    status        = startup
    nproc         =        8
    time left     = 107964s



           Memory information
           ------------------

    heap     =  104857601 doubles =    800.0 Mbytes
    stack    =  104857601 doubles =    800.0 Mbytes
    global   =  209715200 doubles =   1600.0 Mbytes (distinct from heap & stack)
    total    =  419430402 doubles =   3200.0 Mbytes
    verify   = yes
    hardfail = no 


           Directory information
           ---------------------

  0 permanent = .
  0 scratch   = .




                                NWChem Input Module
                                -------------------


                             M06-HF/6-31+G* CH3 force
                             ------------------------

 Scaling coordinates for geometry "geometry" by  1.889725989
 (inverse scale =  0.529177249)

 D3H symmetry detected

          ------
          auto-z
          ------
  Looking for out-of-plane bends


                             Geometry "geometry" -> ""
                             -------------------------

 Output coordinates in angstroms (scale by  1.889725989 to convert to a.u.)

  No.       Tag          Charge          X              Y              Z
 ---- ---------------- ---------- -------------- -------------- --------------
    1 C                    6.0000     0.00000000     0.00000000     0.00000000
    2 H                    1.0000     0.76255084     0.76255084     0.00000000
    3 H                    1.0000     0.27911298    -1.04166382     0.00000000
    4 H                    1.0000    -1.04166382     0.27911298     0.00000000

      Atomic Mass 
      ----------- 

      C                 12.000000
      H                  1.007825


 Effective nuclear repulsion energy (a.u.)       9.6825464442

            Nuclear Dipole moment (a.u.) 
            ----------------------------
        X                 Y               Z
 ---------------- ---------------- ----------------
     0.0000000000     0.0000000000     0.0000000000

      Symmetry information
      --------------------

 Group name             D3h       
 Group number             27
 Group order              12
 No. of unique centers     2

      Symmetry unique atoms

     1    2



                                Z-matrix (autoz)
                                -------- 

 Units are Angstrom for bonds and degrees for angles

      Type          Name      I     J     K     L     M      Value
      ----------- --------  ----- ----- ----- ----- ----- ----------
    1 Stretch                  1     2                       1.07841
    2 Stretch                  1     3                       1.07841
    3 Stretch                  1     4                       1.07841
    4 Bend                     2     1     3               120.00000
    5 Bend                     2     1     4               120.00000
    6 Bend                     3     1     4               120.00000
    7 Torsion                  2     1     3     4         180.00000
    8 Torsion                  2     1     4     3         180.00000
    9 Torsion                  3     1     2     4         180.00000
   10 Torsion                  2     4     1     3         180.00000
   11 Torsion                  3     2     1     4         180.00000
   12 Torsion                  2     3     1     4         180.00000


            XYZ format geometry
            -------------------
     4
 geometry
 C                     0.00000000     0.00000000     0.00000000
 H                     0.76255084     0.76255084     0.00000000
 H                     0.27911298    -1.04166382     0.00000000
 H                    -1.04166382     0.27911298     0.00000000

 ==============================================================================
                                internuclear distances
 ------------------------------------------------------------------------------
       center one      |      center two      | atomic units |  angstroms
 ------------------------------------------------------------------------------
    2 H                |   1 C                |     2.03790  |     1.07841
    3 H                |   1 C                |     2.03790  |     1.07841
    4 H                |   1 C                |     2.03790  |     1.07841
 ------------------------------------------------------------------------------
                         number of included internuclear distances:          3
 ==============================================================================



 ==============================================================================
                                 internuclear angles
 ------------------------------------------------------------------------------
        center 1       |       center 2       |       center 3       |  degrees
 ------------------------------------------------------------------------------
    2 H                |   1 C                |   3 H                |   120.00
    2 H                |   1 C                |   4 H                |   120.00
    3 H                |   1 C                |   4 H                |   120.00
 ------------------------------------------------------------------------------
                            number of included internuclear angles:          3
 ==============================================================================



  library name resolved from: environment
  library file name is: <
 /mscf/scicons/apps/nwchem-6.0.oct19//src/basis/libraries/>
  


 Summary of "ao basis" -> "" (cartesian)
 ------------------------------------------------------------------------------
       Tag                 Description            Shells   Functions and Types
 ---------------- ------------------------------  ------  ---------------------
 *                          6-31+G*                   on all atoms 



                                 NWChem DFT Module
                                 -----------------


                             M06-HF/6-31+G* CH3 force


                      Basis "ao basis" -> "ao basis" (cartesian)
                      -----
  C (Carbon)
  ----------
            Exponent  Coefficients 
       -------------- ---------------------------------------------------------
  1 S  3.04752490E+03  0.001835
  1 S  4.57369510E+02  0.014037
  1 S  1.03948690E+02  0.068843
  1 S  2.92101550E+01  0.232184
  1 S  9.28666300E+00  0.467941
  1 S  3.16392700E+00  0.362312

  2 S  7.86827240E+00 -0.119332
  2 S  1.88128850E+00 -0.160854
  2 S  5.44249300E-01  1.143456

  3 P  7.86827240E+00  0.068999
  3 P  1.88128850E+00  0.316424
  3 P  5.44249300E-01  0.744308

  4 S  1.68714400E-01  1.000000

  5 P  1.68714400E-01  1.000000

  6 S  4.38000000E-02  1.000000

  7 P  4.38000000E-02  1.000000

  8 D  8.00000000E-01  1.000000

  H (Hydrogen)
  ------------
            Exponent  Coefficients 
       -------------- ---------------------------------------------------------
  1 S  1.87311370E+01  0.033495
  1 S  2.82539370E+00  0.234727
  1 S  6.40121700E-01  0.813757

  2 S  1.61277800E-01  1.000000



 Summary of "ao basis" -> "ao basis" (cartesian)
 ------------------------------------------------------------------------------
       Tag                 Description            Shells   Functions and Types
 ---------------- ------------------------------  ------  ---------------------
 C                          6-31+G*                  8       19   4s3p1d
 H                          6-31+G*                  2        2   2s


  Caching 1-el integrals 
  Rotation of axis 

            General Information
            -------------------
          SCF calculation type: DFT
          Wavefunction type:  spin polarized.
          No. of atoms     :     4
          No. of electrons :     9
           Alpha electrons :     5
            Beta electrons :     4
          Charge           :     0
          Spin multiplicity:     2
          Use of symmetry is: on ; symmetry adaption is: on 
          Maximum number of iterations:  30
          AO basis - number of functions:    25
                     number of shells:    14
          Convergence on energy requested: 1.00D-06
          Convergence on density requested: 1.00D-05
          Convergence on gradient requested: 5.00D-04

              XC Information
              --------------
                       M06-HF Method XC Functional
                     Hartree-Fock (Exact) Exchange  1.000          
                        M06-HF Exchange Functional  1.000          
                      M06-HF Correlation Potential  1.000          

             Grid Information
             ----------------
          Grid used for XC integration:  fine      
          Radial quadrature: Mura-Knowles        
          Angular quadrature: Lebedev. 
          Tag              B.-S. Rad. Rad. Pts. Rad. Cut. Ang. Pts.
          ---              ---------- --------- --------- ---------
          C                   0.70       70           8.0       590
          H                   0.35       60           7.0       590
          Grid pruning is: on 
          Number of quadrature shells:   130
          Spatial weights used:  Erf1

          Convergence Information
          -----------------------
          Convergence aids based upon iterative change in 
          total energy or number of iterations. 
          Levelshifting, if invoked, occurs when the 
          HOMO/LUMO gap drops below (HL_TOL): 1.00D-02
          DIIS, if invoked, will attempt to extrapolate 
          using up to (NFOCK): 10 stored Fock matrices.

                    Damping( 0%)  Levelshifting(0.5)       DIIS
                  --------------- ------------------- ---------------
          dE  on:    start            ASAP                start   
          dE off:    2 iters         30 iters            30 iters 


      Screening Tolerance Information
      -------------------------------
          Density screening/tol_rho: 1.00D-10
          AO Gaussian exp screening on grid/accAOfunc:  14
          CD Gaussian exp screening on grid/accCDfunc:  20
          XC Gaussian exp screening on grid/accXCfunc:  20
          Schwarz screening/accCoul: 1.00D-08


      Superposition of Atomic Density Guess
      -------------------------------------

 Sum of atomic energies:         -39.15818925

      Non-variational initial energy
      ------------------------------

 Total energy =     -39.481450
 1-e energy   =     -70.480045
 2-e energy   =      21.316048
 HOMO         =      -0.169389
 LUMO         =       0.073110


   Symmetry analysis of molecular orbitals - initial alpha
   -------------------------------------------------------

  Numbering of irreducible representations: 

     1 a1'         2 a1"         3 a2'         4 a2"         5 e'      
     6 e"      

  Orbital symmetries:

     1 a1'         2 a1'         3 e'          4 e'          5 a2"     
     6 a1'         7 e'          8 e'          9 a2"        10 a1'     
    11 e'         12 e'         13 e'         14 e'         15 a2"     


   Symmetry analysis of molecular orbitals - initial beta
   ------------------------------------------------------

  Numbering of irreducible representations: 

     1 a1'         2 a1"         3 a2'         4 a2"         5 e'      
     6 e"      

  Orbital symmetries:

     1 a1'         2 a1'         3 e'          4 e'          5 a2"     
     6 a1'         7 e'          8 e'          9 a2"        10 a1'     
    11 e'         12 e'         13 e'         14 e'         15 a2"     

   Time after variat. SCF:      0.6
   Time prior to 1st pass:      0.6

 #quartets = 2.175D+03 #integrals = 1.097D+04 #direct =  0.0% #cached =100.0%


 Integral file          = ./ch3.aoints.0
 Record size in doubles =  65536        No. of integs per rec  =  43688
 Max. records in memory =      2        Max. records in file   = 169376
 No. of bits per label  =      8        No. of bits per value  =     64


File balance: exchanges=     0  moved=     0  time=   0.0


 Grid_pts file          = ./ch3.gridpts.0
 Record size in doubles =  12289        No. of grid_pts per rec  =   3070
 Max. records in memory =      5        Max. recs in file   =    903273


           Memory utilization after 1st SCF pass: 
           Heap Space remaining (MW):      104.66           104663263
          Stack Space remaining (MW):      104.86           104857248

   convergence    iter        energy       DeltaE   RMS-Dens  Diis-err    time
 ---------------- ----- ----------------- --------- --------- ---------  ------
 d= 0,ls=0.0,diis     1    -39.7991660734 -4.95D+01  3.93D-03  2.66D-02     0.8
                                                     3.34D-03  3.25D-02
 d= 0,ls=0.0,diis     2    -39.8131820912 -1.40D-02  9.08D-04  7.48D-04     0.9
                                                     1.46D-03  1.93D-03
 d= 0,ls=0.0,diis     3    -39.8142135147 -1.03D-03  5.56D-04  3.21D-04     1.0
                                                     3.46D-04  6.11D-05
 d= 0,ls=0.0,diis     4    -39.8143770648 -1.64D-04  2.40D-04  1.43D-05     1.1
                                                     3.12D-04  5.67D-05
 d= 0,ls=0.0,diis     5    -39.8144146970 -3.76D-05  1.22D-04  2.72D-06     1.3
                                                     8.94D-05  1.05D-06
 d= 0,ls=0.0,diis     6    -39.8144175797 -2.88D-06  1.88D-05  4.18D-08     1.4
                                                     1.55D-05  4.49D-08
 d= 0,ls=0.0,diis     7    -39.8144176393 -5.96D-08  1.30D-06  4.11D-10     1.5
                                                     1.32D-06  5.36D-10


         Total DFT energy =      -39.814417639280
      One electron energy =      -71.543878762056
           Coulomb energy =       28.498137418672
    Exchange-Corr. energy =       -6.451222740113
 Nuclear repulsion energy =        9.682546444217

 Numeric. integr. density =        8.999999968266

     Total iterative time =      0.8s



                    DFT Final Alpha Molecular Orbital Analysis
                    ------------------------------------------

 Vector    1  Occ=1.000000D+00  E=-1.097990D+01  Symmetry=a1'
              MO Center=  2.5D-21,  4.7D-21,  9.4D-39, r^2= 2.8D-02
   Bfn.  Coefficient  Atom+Function         Bfn.  Coefficient  Atom+Function  
  ----- ------------  ---------------      ----- ------------  ---------------
     1     -0.993438  1 C  s          

 Vector    2  Occ=1.000000D+00  E=-8.820733D-01  Symmetry=a1'
              MO Center= -2.6D-16, -9.7D-17, -2.0D-21, r^2= 1.0D+00
   Bfn.  Coefficient  Atom+Function         Bfn.  Coefficient  Atom+Function  
  ----- ------------  ---------------      ----- ------------  ---------------
     6     -0.412289  1 C  s                  2     -0.410104  1 C  s          
     1      0.203233  1 C  s          

 Vector    3  Occ=1.000000D+00  E=-5.879637D-01  Symmetry=e'
              MO Center= -1.0D-01, -2.2D-01,  1.9D-16, r^2= 1.2D+00
   Bfn.  Coefficient  Atom+Function         Bfn.  Coefficient  Atom+Function  
  ----- ------------  ---------------      ----- ------------  ---------------
     4     -0.395615  1 C  py                 3      0.276917  1 C  px         
    22      0.256197  3 H  s                 24     -0.208813  4 H  s          
     8     -0.169300  1 C  py                23      0.164598  3 H  s          

 Vector    4  Occ=1.000000D+00  E=-5.879637D-01  Symmetry=e'
              MO Center=  1.0D-01,  2.2D-01, -2.6D-33, r^2= 1.2D+00
   Bfn.  Coefficient  Atom+Function         Bfn.  Coefficient  Atom+Function  
  ----- ------------  ---------------      ----- ------------  ---------------
     3     -0.395615  1 C  px                 4     -0.276917  1 C  py         
    20     -0.268473  2 H  s                 24      0.175272  4 H  s          
    21     -0.172486  2 H  s                  7     -0.169300  1 C  px         

 Vector    5  Occ=1.000000D+00  E=-3.418265D-01  Symmetry=a2"
              MO Center=  8.7D-17,  2.4D-17,  2.6D-17, r^2= 1.4D+00
   Bfn.  Coefficient  Atom+Function         Bfn.  Coefficient  Atom+Function  
  ----- ------------  ---------------      ----- ------------  ---------------
     5      0.573620  1 C  pz                 9      0.464260  1 C  pz         
    13      0.168155  1 C  pz         

 Vector    6  Occ=0.000000D+00  E= 6.266374D-02  Symmetry=a1'
              MO Center=  2.8D-17,  0.0D+00, -4.5D-17, r^2= 7.6D+00
   Bfn.  Coefficient  Atom+Function         Bfn.  Coefficient  Atom+Function  
  ----- ------------  ---------------      ----- ------------  ---------------
    10     -1.584370  1 C  s                  6      0.541880  1 C  s          
    21      0.215001  2 H  s                 23      0.215001  3 H  s          
    25      0.215001  4 H  s          

 Vector    7  Occ=0.000000D+00  E= 7.907614D-02  Symmetry=e'
              MO Center= -6.1D-02, -1.2D-01,  8.3D-18, r^2= 9.6D+00
   Bfn.  Coefficient  Atom+Function         Bfn.  Coefficient  Atom+Function  
  ----- ------------  ---------------      ----- ------------  ---------------
    11      0.983738  1 C  px                12      0.723518  1 C  py         
    21     -0.310819  2 H  s                 25      0.196437  4 H  s          

 Vector    8  Occ=0.000000D+00  E= 7.907614D-02  Symmetry=e'
              MO Center=  6.1D-02,  1.2D-01, -6.0D-33, r^2= 9.6D+00
   Bfn.  Coefficient  Atom+Function         Bfn.  Coefficient  Atom+Function  
  ----- ------------  ---------------      ----- ------------  ---------------
    12     -0.983738  1 C  py                11      0.723518  1 C  px         
    23     -0.292864  3 H  s                 25      0.245489  4 H  s          

 Vector    9  Occ=0.000000D+00  E= 1.106332D-01  Symmetry=a2"
              MO Center=  2.0D-18, -3.8D-18, -1.5D-18, r^2= 9.0D+00
   Bfn.  Coefficient  Atom+Function         Bfn.  Coefficient  Atom+Function  
  ----- ------------  ---------------      ----- ------------  ---------------
    13     -1.153896  1 C  pz                 9      0.474036  1 C  pz         
     5      0.226920  1 C  pz         

 Vector   10  Occ=0.000000D+00  E= 2.940768D-01  Symmetry=e'
              MO Center= -3.3D-01, -1.5D-01,  1.2D-31, r^2= 3.3D+00
   Bfn.  Coefficient  Atom+Function         Bfn.  Coefficient  Atom+Function  
  ----- ------------  ---------------      ----- ------------  ---------------
    25      2.053217  4 H  s                 23     -1.661851  3 H  s          
     7      1.356515  1 C  px                 8     -0.937872  1 C  py         
    21     -0.391365  2 H  s                 11      0.295169  1 C  px         
     3      0.219777  1 C  px                12     -0.204075  1 C  py         
     4     -0.151950  1 C  py         

 Vector   11  Occ=0.000000D+00  E= 2.940768D-01  Symmetry=e'
              MO Center=  3.3D-01,  1.5D-01,  8.0D-32, r^2= 3.3D+00
   Bfn.  Coefficient  Atom+Function         Bfn.  Coefficient  Atom+Function  
  ----- ------------  ---------------      ----- ------------  ---------------
    21     -2.144895  2 H  s                 23      1.411380  3 H  s          
     8      1.356515  1 C  py                 7      0.937872  1 C  px         
    25      0.733515  4 H  s                 12      0.295169  1 C  py         
     4      0.219777  1 C  py                11      0.204075  1 C  px         
     3      0.151950  1 C  px         

 Vector   12  Occ=0.000000D+00  E= 3.016292D-01  Symmetry=a1'
              MO Center=  6.7D-16,  5.0D-16,  1.9D-17, r^2= 4.0D+00
   Bfn.  Coefficient  Atom+Function         Bfn.  Coefficient  Atom+Function  
  ----- ------------  ---------------      ----- ------------  ---------------
     6      2.653458  1 C  s                 23     -1.550621  3 H  s          
    25     -1.550621  4 H  s                 21     -1.550621  2 H  s          
    10      1.071828  1 C  s          

 Vector   13  Occ=0.000000D+00  E= 7.221848D-01  Symmetry=e'
              MO Center= -1.4D-01, -3.8D-02, -2.4D-32, r^2= 2.8D+00
   Bfn.  Coefficient  Atom+Function         Bfn.  Coefficient  Atom+Function  
  ----- ------------  ---------------      ----- ------------  ---------------
     8     -1.496750  1 C  py                 7     -0.863772  1 C  px         
     4      0.803649  1 C  py                 3      0.463784  1 C  px         
    12      0.458953  1 C  py                20      0.330000  2 H  s          
    11      0.264861  1 C  px                22     -0.241635  3 H  s          
    21      0.169995  2 H  s          

 Vector   14  Occ=0.000000D+00  E= 7.221848D-01  Symmetry=e'
              MO Center=  1.4D-01,  3.8D-02,  2.9D-18, r^2= 2.8D+00
   Bfn.  Coefficient  Atom+Function         Bfn.  Coefficient  Atom+Function  
  ----- ------------  ---------------      ----- ------------  ---------------
     7     -1.496750  1 C  px                 8      0.863772  1 C  py         
     3      0.803649  1 C  px                 4     -0.463784  1 C  py         
    11      0.458953  1 C  px                24     -0.330033  4 H  s          
    12     -0.264861  1 C  py                22      0.241543  3 H  s          
    25     -0.170013  4 H  s          

 Vector   15  Occ=0.000000D+00  E= 7.422191D-01  Symmetry=a2"
              MO Center=  3.2D-31,  9.2D-32,  1.5D-20, r^2= 2.6D+00
   Bfn.  Coefficient  Atom+Function         Bfn.  Coefficient  Atom+Function  
  ----- ------------  ---------------      ----- ------------  ---------------
     9     -1.385682  1 C  pz                 5      1.097645  1 C  pz         
    13      0.528042  1 C  pz         


                     DFT Final Beta Molecular Orbital Analysis
                     -----------------------------------------

 Vector    1  Occ=1.000000D+00  E=-1.097993D+01  Symmetry=a1'
              MO Center=  0.0D+00,  2.3D-21, -5.9D-40, r^2= 2.8D-02
   Bfn.  Coefficient  Atom+Function         Bfn.  Coefficient  Atom+Function  
  ----- ------------  ---------------      ----- ------------  ---------------
     1      0.993971  1 C  s          

 Vector    2  Occ=1.000000D+00  E=-8.482899D-01  Symmetry=a1'
              MO Center=  0.0D+00, -1.1D-17, -1.9D-36, r^2= 1.0D+00
   Bfn.  Coefficient  Atom+Function         Bfn.  Coefficient  Atom+Function  
  ----- ------------  ---------------      ----- ------------  ---------------
     2      0.374292  1 C  s                  6      0.333586  1 C  s          
     1     -0.193171  1 C  s                 20      0.163783  2 H  s          
    22      0.163783  3 H  s                 24      0.163783  4 H  s          

 Vector    3  Occ=1.000000D+00  E=-5.733614D-01  Symmetry=e'
              MO Center=  1.1D-01,  2.6D-01,  4.3D-35, r^2= 1.2D+00
   Bfn.  Coefficient  Atom+Function         Bfn.  Coefficient  Atom+Function  
  ----- ------------  ---------------      ----- ------------  ---------------
     3      0.365109  1 C  px                20      0.277893  2 H  s          
     4      0.243855  1 C  py                21      0.209876  2 H  s          
    24     -0.186866  4 H  s                  7      0.162768  1 C  px         

 Vector    4  Occ=1.000000D+00  E=-5.733614D-01  Symmetry=e'
              MO Center= -1.1D-01, -2.6D-01,  6.6D-17, r^2= 1.2D+00
   Bfn.  Coefficient  Atom+Function         Bfn.  Coefficient  Atom+Function  
  ----- ------------  ---------------      ----- ------------  ---------------
     4      0.365109  1 C  py                22     -0.268329  3 H  s          
     3     -0.243855  1 C  px                24      0.212996  4 H  s          
    23     -0.202652  3 H  s                  8      0.162768  1 C  py         
    25      0.160863  4 H  s          

 Vector    5  Occ=0.000000D+00  E=-9.133558D-02  Symmetry=a2"
              MO Center= -1.3D-34, -3.0D-34,  2.1D-33, r^2= 8.6D+00
   Bfn.  Coefficient  Atom+Function         Bfn.  Coefficient  Atom+Function  
  ----- ------------  ---------------      ----- ------------  ---------------
    13      1.080002  1 C  pz                 9     -0.186156  1 C  pz         

 Vector    6  Occ=0.000000D+00  E=-2.182641D-02  Symmetry=a1'
              MO Center= -2.4D-15,  5.4D-15,  9.1D-19, r^2= 8.2D+00
   Bfn.  Coefficient  Atom+Function         Bfn.  Coefficient  Atom+Function  
  ----- ------------  ---------------      ----- ------------  ---------------
    10      1.756240  1 C  s                 25     -0.454943  4 H  s          
    21     -0.454943  2 H  s                 23     -0.454943  3 H  s          
     6     -0.201392  1 C  s          

 Vector    7  Occ=0.000000D+00  E= 2.811372D-02  Symmetry=e'
              MO Center= -4.8D-02,  1.7D-01, -5.7D-18, r^2= 9.8D+00
   Bfn.  Coefficient  Atom+Function         Bfn.  Coefficient  Atom+Function  
  ----- ------------  ---------------      ----- ------------  ---------------
    12      1.212546  1 C  py                23      0.437335  3 H  s          
    11     -0.312470  1 C  px                21     -0.222300  2 H  s          
    25     -0.215036  4 H  s          

 Vector    8  Occ=0.000000D+00  E= 2.811372D-02  Symmetry=e'
              MO Center=  4.8D-02, -1.7D-01, -5.0D-33, r^2= 9.8D+00
   Bfn.  Coefficient  Atom+Function         Bfn.  Coefficient  Atom+Function  
  ----- ------------  ---------------      ----- ------------  ---------------
    11      1.212546  1 C  px                25      0.380840  4 H  s          
    21     -0.376646  2 H  s                 12      0.312470  1 C  py         

 Vector    9  Occ=0.000000D+00  E= 1.008504D-01  Symmetry=a2"
              MO Center=  5.4D-17,  1.3D-17, -8.0D-19, r^2= 2.5D+00
   Bfn.  Coefficient  Atom+Function         Bfn.  Coefficient  Atom+Function  
  ----- ------------  ---------------      ----- ------------  ---------------
     9      0.886923  1 C  pz                13     -0.549032  1 C  pz         
     5      0.395894  1 C  pz         

 Vector   10  Occ=0.000000D+00  E= 2.774301D-01  Symmetry=a1'
              MO Center= -2.2D-13, -8.9D-14,  9.2D-20, r^2= 3.8D+00
   Bfn.  Coefficient  Atom+Function         Bfn.  Coefficient  Atom+Function  
  ----- ------------  ---------------      ----- ------------  ---------------
     6     -2.826707  1 C  s                 25      1.582849  4 H  s          
    23      1.582849  3 H  s                 21      1.582849  2 H  s          
    10     -0.887165  1 C  s          

 Vector   11  Occ=0.000000D+00  E= 2.957304D-01  Symmetry=e'
              MO Center= -3.4D-01,  1.9D-01,  4.9D-17, r^2= 3.3D+00
   Bfn.  Coefficient  Atom+Function         Bfn.  Coefficient  Atom+Function  
  ----- ------------  ---------------      ----- ------------  ---------------
    25     -2.236885  4 H  s                  7     -1.758267  1 C  px         
    21      1.354169  2 H  s                 23      0.882716  3 H  s          
    11     -0.289779  1 C  px                 8      0.249052  1 C  py         
     3     -0.215120  1 C  px         

 Vector   12  Occ=0.000000D+00  E= 2.957304D-01  Symmetry=e'
              MO Center=  3.4D-01, -1.9D-01,  1.4D-30, r^2= 3.3D+00
   Bfn.  Coefficient  Atom+Function         Bfn.  Coefficient  Atom+Function  
  ----- ------------  ---------------      ----- ------------  ---------------
    23     -2.073296  3 H  s                 21      1.801102  2 H  s          
     8     -1.758267  1 C  py                12     -0.289779  1 C  py         
    25      0.272194  4 H  s                  7     -0.249052  1 C  px         
     4     -0.215120  1 C  py         

 Vector   13  Occ=0.000000D+00  E= 7.274510D-01  Symmetry=e'
              MO Center=  8.7D-02,  7.2D-02,  8.2D-19, r^2= 2.8D+00
   Bfn.  Coefficient  Atom+Function         Bfn.  Coefficient  Atom+Function  
  ----- ------------  ---------------      ----- ------------  ---------------
     7     -1.177086  1 C  px                 8      1.077831  1 C  py         
     3      0.645786  1 C  px                 4     -0.591331  1 C  py         
    11      0.397056  1 C  px                24     -0.390672  4 H  s          
    22      0.371308  3 H  s                 12     -0.363575  1 C  py         

 Vector   14  Occ=0.000000D+00  E= 7.274510D-01  Symmetry=e'
              MO Center= -8.7D-02, -7.2D-02,  3.0D-18, r^2= 2.8D+00
   Bfn.  Coefficient  Atom+Function         Bfn.  Coefficient  Atom+Function  
  ----- ------------  ---------------      ----- ------------  ---------------
     8      1.177086  1 C  py                 7      1.077831  1 C  px         
     4     -0.645786  1 C  py                 3     -0.591331  1 C  px         
    20     -0.439929  2 H  s                 12     -0.397056  1 C  py         
    11     -0.363575  1 C  px                22      0.236735  3 H  s          
    24      0.203195  4 H  s                 15     -0.159496  1 C  dxy        

 Vector   15  Occ=0.000000D+00  E= 7.580989D-01  Symmetry=a2"
              MO Center=  1.2D-17,  6.5D-18,  5.6D-19, r^2= 1.9D+00
   Bfn.  Coefficient  Atom+Function         Bfn.  Coefficient  Atom+Function  
  ----- ------------  ---------------      ----- ------------  ---------------
     9      1.240596  1 C  pz                 5     -1.188137  1 C  pz         
    13     -0.413206  1 C  pz         


   alpha - beta orbital overlaps 
   ----------------------------- 


   alpha      1      2      3      4      5      6      7      8      9     10
    beta      1      2      4      3      9      6      8      7      5     11
 overlap   1.000  0.999  0.998  0.998  0.838  0.989  0.926  0.926  0.850  0.890


   alpha     11     12     13     14     15     16     17     18     19     20
    beta     12     10     14     13     15     16     19     18     17     20
 overlap   0.890  0.987  0.972  0.972  0.983  0.998  0.985  0.985  0.997  0.964


   alpha     21     22     23     24     25
    beta     21     22     23     24     25
 overlap   0.964  0.999  0.976  0.976  0.999

     --------------------------
     Expectation value of S2:  
     --------------------------
      <S2> =      0.7563 (Exact =     0.7500)


 center of mass
 --------------
 x =   0.00000000 y =   0.00000000 z =   0.00000000

 moments of inertia (a.u.)
 ------------------
           6.278294140161           0.000000000000           0.000000000000
           0.000000000000           6.278294140161           0.000000000000
           0.000000000000           0.000000000000          12.556588280322

     Multipole analysis of the density
     ---------------------------------

     L   x y z        total         alpha         beta         nuclear
     -   - - -        -----         -----         ----         -------
     0   0 0 0      0.000000     -5.000000     -4.000000      9.000000

     1   1 0 0      0.000000      0.000000      0.000000      0.000000
     1   0 1 0      0.000000      0.000000      0.000000      0.000000
     1   0 0 1      0.000000      0.000000      0.000000      0.000000

     2   2 0 0     -5.474883     -6.186666     -5.517765      6.229548
     2   1 1 0      0.000000      0.000000      0.000000      0.000000
     2   1 0 1      0.000000      0.000000      0.000000      0.000000
     2   0 2 0     -5.474883     -6.186666     -5.517765      6.229548
     2   0 1 1      0.000000      0.000000      0.000000      0.000000
     2   0 0 2     -7.275363     -5.161966     -2.113398      0.000000


 Parallel integral file used       8 records with       0 large values



                            NWChem DFT Gradient Module
                            --------------------------


                             M06-HF/6-31+G* CH3 force



  charge          =   0.00
  wavefunction    = open shell

  Rotation of axis 
  Using symmetry


                         DFT ENERGY GRADIENTS

    atom               coordinates                        gradient
                 x          y          z           x          y          z
   1 C       0.000000   0.000000   0.000000    0.000000   0.000000   0.000000
   2 H       1.441012   1.441012   0.000000    0.001607   0.001607   0.000000
   3 H       0.527447  -1.968459   0.000000    0.000588  -0.002195   0.000000
   4 H      -1.968459   0.527447   0.000000   -0.002195   0.000588   0.000000

                 ----------------------------------------
                 |  Time  |  1-e(secs)   |  2-e(secs)   |
                 ----------------------------------------
                 |  CPU   |       0.00   |       0.01   |
                 ----------------------------------------
                 |  WALL  |       0.01   |       0.02   |
                 ----------------------------------------

 Task  times  cpu:        1.2s     wall:        1.4s


                                NWChem Input Module
                                -------------------


 Summary of allocated global arrays
-----------------------------------
  No active global arrays



                         GA Statistics for process    0
                         ------------------------------

       create   destroy   get      put      acc     scatter   gather  read&inc
calls:  389      389     3519     1092      988        0        0        0     
number of processes/call 1.89e+00 1.53e+00 2.39e+00 0.00e+00 0.00e+00
bytes total:             3.64e+06 1.09e+06 1.52e+06 0.00e+00 0.00e+00 0.00e+00
bytes remote:            1.75e+06 2.88e+05 9.28e+05 0.00e+00 0.00e+00 0.00e+00
Max memory consumed for GA by this process: 181944 bytes

MA_summarize_allocated_blocks: starting scan ...
MA_summarize_allocated_blocks: scan completed: 0 heap blocks, 0 stack blocks
MA usage statistics:

	allocation statistics:
					      heap	     stack
					      ----	     -----
	current number of blocks	         0	         0
	maximum number of blocks	        25	        52
	current total bytes		         0	         0
	maximum total bytes		   1554704	  22511456
	maximum total K-bytes		      1555	     22512
	maximum total M-bytes		         2	        23


                                     CITATION
                                     --------
                Please cite the following reference when publishing
                           results obtained with NWChem:

                 M. Valiev, E.J. Bylaska, N. Govind, K. Kowalski,
              T.P. Straatsma, H.J.J. van Dam, D. Wang, J. Nieplocha,
                        E. Apra, T.L. Windus, W.A. de Jong
                 "NWChem: a comprehensive and scalable open-source
                  solution for large scale molecular simulations"
                      Comput. Phys. Commun. 181, 1477 (2010)
                           doi:10.1016/j.cpc.2010.04.018

                              AUTHORS & CONTRIBUTORS
                              ----------------------
      E. J. Bylaska, W. A. de Jong, N. Govind, K. Kowalski, T. P. Straatsma,
     M. Valiev, H. J. J. van Dam, D. Wang, E. Apra, T. L. Windus, J. Hammond,
     J. Autschbach, P. Nichols, S. Hirata, M. T. Hackler, Y. Zhao, P.-D. Fan,
      R. J. Harrison, M. Dupuis, D. M. A. Smith, K. Glaesemann, J. Nieplocha,
      V. Tipparaju, M. Krishnan, A. Vazquez-Mayagoitia, L. Jensen, M. Swart,
      Q. Wu, T. Van Voorhis, A. A. Auer, M. Nooijen, L. D. Crosby, E. Brown,
             G. Cisneros, G. I. Fann, H. Fruchtl, J. Garza, K. Hirao,
        R. Kendall, J. A. Nichols, K. Tsemekhman, K. Wolinski, J. Anchell,
       D. Bernholdt, P. Borowski, T. Clark, D. Clerc, H. Dachsel, M. Deegan,
        K. Dyall, D. Elwood, E. Glendening, M. Gutowski, A. Hess, J. Jaffe,
        B. Johnson, J. Ju, R. Kobayashi, R. Kutteh, Z. Lin, R. Littlefield,
    X. Long, B. Meng, T. Nakajima, S. Niu, L. Pollack, M. Rosing, G. Sandrone,
       M. Stave, H. Taylor, G. Thomas, J. H. van Lenthe, A. Wong, Z. Zhang.

 Total times  cpu:        1.3s     wall:        3.1s
