 argument  1 = /people/edo/deception/nwchem/src/dft_c2br6_vdw4.nw
 


============================== echo of input deck ==============================
 echo

title "vdw 4 DOI 10.1002/jcc.21759"
start dft_c2br6_vdw4.nw

geometry
 C        0.00000000     0.00000000     0.78259955
 C        0.00000000    -0.00000000    -0.78259955
 Br       1.66249032     0.78472663     1.45955932
 Br      -0.15165196    -1.83212216     1.45955932
 Br      -1.51083835     1.04739553     1.45955932
 Br      -1.66249032    -0.78472663    -1.45955932
 Br       1.51083835    -1.04739553    -1.45955932
 Br       0.15165196     1.83212216    -1.45955932
end

basis spherical
 * library  def2-qzvp
end

dft
 print geometry
 direct
 xc xtpss03 ctpss03
  mult 1
  disp vdw 4
  grid fine
end

task dft optimize

DFT
  xc pw6b95
  mult 1
  disp vdw 4
END

task dft optimize
================================================================================


                                         
                                         
 
 
             Northwest Computational Chemistry Package (NWChem) 7.0.1
             --------------------------------------------------------
 
 
                    Environmental Molecular Sciences Laboratory
                       Pacific Northwest National Laboratory
                                Richland, WA 99352
 
                              Copyright (c) 1994-2020
                       Pacific Northwest National Laboratory
                            Battelle Memorial Institute
 
             NWChem is an open-source computational chemistry package
                        distributed under the terms of the
                      Educational Community License (ECL) 2.0
             A copy of the license is included with this distribution
                              in the LICENSE.TXT file
 
                                  ACKNOWLEDGMENT
                                  --------------

            This software and its documentation were developed at the
            EMSL at Pacific Northwest National Laboratory, a multiprogram
            national laboratory, operated for the U.S. Department of Energy
            by Battelle under Contract Number DE-AC05-76RL01830. Support
            for this work was provided by the Department of Energy Office
            of Biological and Environmental Research, Office of Basic
            Energy Sciences, and the Office of Advanced Scientific Computing.


           Job information
           ---------------

    hostname        = dc001.local
    program         = /scratch/nwchem
    date            = Tue Mar  8 09:50:51 2022

    compiled        = Tue_Mar_08_09:47:43_2022
    source          = /people/edo/deception/nwchem/
    nwchem branch   = 7.0.0
    nwchem revision = nwchem_on_git-3041-g46a87fa
    ga revision     = 5.8.1
    use scalapack   = T
    input           = /people/edo/deception/nwchem/src/dft_c2br6_vdw4.nw
    prefix          = dft_c2br6_vdw4.nw.
    data base       = ./dft_c2br6_vdw4.nw.db
    status          = startup
    nproc           =      124
    time left       =     -1s



           Memory information
           ------------------

    heap     =   26214398 doubles =    200.0 Mbytes
    stack    =   26214395 doubles =    200.0 Mbytes
    global   =   52428800 doubles =    400.0 Mbytes (distinct from heap & stack)
    total    =  104857593 doubles =    800.0 Mbytes
    verify   = yes
    hardfail = no 


           Directory information
           ---------------------
 
  0 permanent = .
  0 scratch   = .
 
 
 
 
                                NWChem Input Module
                                -------------------
 
 
                            vdw 4 DOI 10.1002/jcc.21759
                            ---------------------------

 Scaling coordinates for geometry "geometry" by  1.889725989
 (inverse scale =  0.529177249)

 D3D symmetry detected

          ------
          auto-z
          ------
  no constraints, skipping     0.000000000000000     
  no constraints, skipping     0.000000000000000     
 
 
                             Geometry "geometry" -> ""
                             -------------------------
 
 Output coordinates in angstroms (scale by  1.889725989 to convert to a.u.)
 
  No.       Tag          Charge          X              Y              Z
 ---- ---------------- ---------- -------------- -------------- --------------
    1 C                    6.0000     0.00000000    -0.00000000     0.78259955
    2 C                    6.0000    -0.00000000     0.00000000    -0.78259955
    3 Br                  35.0000    -1.29993652     1.29993652     1.45955932
    4 Br                  35.0000     1.77574631     0.47580979     1.45955932
    5 Br                  35.0000    -0.47580979    -1.77574631     1.45955932
    6 Br                  35.0000     1.29993652    -1.29993652    -1.45955932
    7 Br                  35.0000     0.47580979     1.77574631    -1.45955932
    8 Br                  35.0000    -1.77574631    -0.47580979    -1.45955932
 
      Atomic Mass 
      ----------- 
 
      C                 12.000000
      Br                79.916500
 

 Effective nuclear repulsion energy (a.u.)    3345.6645606676

            Nuclear Dipole moment (a.u.) 
            ----------------------------
        X                 Y               Z
 ---------------- ---------------- ----------------
     0.0000000000     0.0000000000     0.0000000000
 
      Symmetry information
      --------------------
 
 Group name             D3d       
 Group number             33
 Group order              12
 No. of unique centers     2
 
      Symmetry unique atoms
 
     1    3
 


                                Z-matrix (autoz)
                                -------- 

 Units are Angstrom for bonds and degrees for angles
 
      Type          Name      I     J     K     L     M      Value
      ----------- --------  ----- ----- ----- ----- ----- ----------
    1 Stretch                  1     2                       1.56520
    2 Stretch                  1     3                       1.95907
    3 Stretch                  1     4                       1.95907
    4 Stretch                  1     5                       1.95907
    5 Stretch                  2     6                       1.95907
    6 Stretch                  2     7                       1.95907
    7 Stretch                  2     8                       1.95907
    8 Bend                     1     2     6               110.21550
    9 Bend                     1     2     7               110.21550
   10 Bend                     1     2     8               110.21550
   11 Bend                     2     1     3               110.21550
   12 Bend                     2     1     4               110.21550
   13 Bend                     2     1     5               110.21550
   14 Bend                     3     1     4               108.71680
   15 Bend                     3     1     5               108.71680
   16 Bend                     4     1     5               108.71680
   17 Bend                     6     2     7               108.71680
   18 Bend                     6     2     8               108.71680
   19 Bend                     7     2     8               108.71680
   20 Torsion                  3     1     2     6         180.00000
   21 Torsion                  3     1     2     7          60.00000
   22 Torsion                  3     1     2     8         -60.00000
   23 Torsion                  4     1     2     6          60.00000
   24 Torsion                  4     1     2     7         -60.00000
   25 Torsion                  4     1     2     8         180.00000
   26 Torsion                  5     1     2     6         -60.00000
   27 Torsion                  5     1     2     7         180.00000
   28 Torsion                  5     1     2     8          60.00000
 
 
            XYZ format geometry
            -------------------
     8
 geometry
 C                     0.00000000    -0.00000000     0.78259955
 C                    -0.00000000     0.00000000    -0.78259955
 Br                   -1.29993652     1.29993652     1.45955932
 Br                    1.77574631     0.47580979     1.45955932
 Br                   -0.47580979    -1.77574631     1.45955932
 Br                    1.29993652    -1.29993652    -1.45955932
 Br                    0.47580979     1.77574631    -1.45955932
 Br                   -1.77574631    -0.47580979    -1.45955932
 
 ==============================================================================
                                internuclear distances
 ------------------------------------------------------------------------------
       center one      |      center two      | atomic units |  angstroms
 ------------------------------------------------------------------------------
    2 C                |   1 C                |     2.95780  |     1.56520
    3 Br               |   1 C                |     3.70210  |     1.95907
    4 Br               |   1 C                |     3.70210  |     1.95907
    5 Br               |   1 C                |     3.70210  |     1.95907
    6 Br               |   2 C                |     3.70210  |     1.95907
    7 Br               |   2 C                |     3.70210  |     1.95907
    8 Br               |   2 C                |     3.70210  |     1.95907
 ------------------------------------------------------------------------------
                         number of included internuclear distances:          7
 ==============================================================================



 ==============================================================================
                                 internuclear angles
 ------------------------------------------------------------------------------
        center 1       |       center 2       |       center 3       |  degrees
 ------------------------------------------------------------------------------
    2 C                |   1 C                |   3 Br               |   110.22
    2 C                |   1 C                |   4 Br               |   110.22
    2 C                |   1 C                |   5 Br               |   110.22
    3 Br               |   1 C                |   4 Br               |   108.72
    3 Br               |   1 C                |   5 Br               |   108.72
    4 Br               |   1 C                |   5 Br               |   108.72
    1 C                |   2 C                |   6 Br               |   110.22
    1 C                |   2 C                |   7 Br               |   110.22
    1 C                |   2 C                |   8 Br               |   110.22
    6 Br               |   2 C                |   7 Br               |   108.72
    6 Br               |   2 C                |   8 Br               |   108.72
    7 Br               |   2 C                |   8 Br               |   108.72
 ------------------------------------------------------------------------------
                            number of included internuclear angles:         12
 ==============================================================================



  library name resolved from: environment
  library file name is: <
 /qfs/people/scicons/deception/nwchem/nwchem-7.0.2//src/basis/libraries.bse/>
  


 Summary of "ao basis" -> "" (spherical)
 ------------------------------------------------------------------------------
       Tag                 Description            Shells   Functions and Types
 ---------------- ------------------------------  ------  ---------------------
 *                         def2-qzvp                  on all atoms 


 
 
                           NWChem Geometry Optimization
                           ----------------------------
 
 
 
 
                            vdw 4 DOI 10.1002/jcc.21759
 
 
  no constraints, skipping     0.000000000000000     
 maximum gradient threshold         (gmax) =   0.000450
 rms gradient threshold             (grms) =   0.000300
 maximum cartesian step threshold   (xmax) =   0.001800
 rms cartesian step threshold       (xrms) =   0.001200
 fixed trust radius                (trust) =   0.300000
 maximum step size to saddle      (sadstp) =   0.100000
 energy precision                  (eprec) =   5.0D-06
 maximum number of steps          (nptopt) =   40
 initial hessian option           (inhess) =    0
 line search option               (linopt) =    1
 hessian update option            (modupd) =    1
 saddle point option              (modsad) =    0
 initial eigen-mode to follow     (moddir) =    0
 initial variable to follow       (vardir) =    0
 follow first negative mode     (firstneg) =    T
 apply conjugacy                    (opcg) =    F
 source of zmatrix                         =   autoz   


          -------------------
          Energy Minimization
          -------------------

 
 Names of Z-matrix variables 
    1              2              3              4              5         
    6              7              8              9             10         
   11             12             13             14             15         
   16             17             18             19             20         
   21             22             23             24             25         
   26             27             28         
 
 Variables with the same non-blank name are constrained to be equal
 
 
 Using diagonal initial Hessian 
 Scaling for Hessian diagonals: bonds = 1.00  angles = 0.25  torsions = 0.10

          --------
          Step   0
          --------
 
 
                         Geometry "geometry" -> "geometry"
                         ---------------------------------
 
 Output coordinates in angstroms (scale by  1.889725989 to convert to a.u.)
 
  No.       Tag          Charge          X              Y              Z
 ---- ---------------- ---------- -------------- -------------- --------------
    1 C                    6.0000     0.00000000    -0.00000000     0.78259955
    2 C                    6.0000    -0.00000000     0.00000000    -0.78259955
    3 Br                  35.0000    -1.29993652     1.29993652     1.45955932
    4 Br                  35.0000     1.77574631     0.47580979     1.45955932
    5 Br                  35.0000    -0.47580979    -1.77574631     1.45955932
    6 Br                  35.0000     1.29993652    -1.29993652    -1.45955932
    7 Br                  35.0000     0.47580979     1.77574631    -1.45955932
    8 Br                  35.0000    -1.77574631    -0.47580979    -1.45955932
 
      Atomic Mass 
      ----------- 
 
      C                 12.000000
      Br                79.916500
 

 Effective nuclear repulsion energy (a.u.)    3345.6645606676

            Nuclear Dipole moment (a.u.) 
            ----------------------------
        X                 Y               Z
 ---------------- ---------------- ----------------
     0.0000000000     0.0000000000     0.0000000000
 
      Symmetry information
      --------------------
 
 Group name             D3d       
 Group number             33
 Group order              12
 No. of unique centers     2
 
      Symmetry unique atoms
 
     1    3
 
 
                                 NWChem DFT Module
                                 -----------------
 
 
                            vdw 4 DOI 10.1002/jcc.21759
 
 
                      Basis "ao basis" -> "ao basis" (spherical)
                      -----
  C (Carbon)
  ----------
            Exponent  Coefficients 
       -------------- ---------------------------------------------------------
  1 S  6.70250710E+04  0.000039
  1 S  1.00399865E+04  0.000301
  1 S  2.28493169E+03  0.001579
  1 S  6.47141221E+02  0.006609
  1 S  2.11094723E+02  0.023367
  1 S  7.61776439E+01  0.070421
  1 S  2.96338392E+01  0.173603
  1 S  1.21877851E+01  0.322923
 
  2 S  5.30260063E+01  0.074897
  2 S  1.52585028E+01  0.761362
 
  3 S  5.24039575E+00  1.000000
 
  4 S  2.29050224E+00  1.000000
 
  5 S  6.96732830E-01  1.000000
 
  6 S  2.75993374E-01  1.000000
 
  7 S  1.07398844E-01  1.000000
 
  8 P  1.05125551E+02  0.000846
  8 P  2.48844611E+01  0.006627
  8 P  7.86372308E+00  0.030120
  8 P  2.84070018E+00  0.099951
  8 P  1.12271373E+00  0.238263
 
  9 P  4.60507256E-01  1.000000
 
 10 P  1.89375309E-01  1.000000
 
 11 P  7.59837916E-02  1.000000
 
 12 D  1.84800000E+00  1.000000
 
 13 D  6.49000000E-01  1.000000
 
 14 D  2.28000000E-01  1.000000
 
 15 F  1.41900000E+00  1.000000
 
 16 F  4.85000000E-01  1.000000
 
 17 G  1.01100000E+00  1.000000
 
  Br (Bromine)
  ------------
            Exponent  Coefficients 
       -------------- ---------------------------------------------------------
  1 S  1.06290443E+07  0.000006
  1 S  1.59191827E+06  0.000046
  1 S  3.62333984E+05  0.000242
  1 S  1.02643111E+05  0.001023
  1 S  3.34898467E+04  0.003712
  1 S  1.20912472E+04  0.011978
  1 S  4.71619088E+03  0.034683
  1 S  1.95615981E+03  0.089068
  1 S  8.53085958E+02  0.193301
  1 S  3.87966337E+02  0.320711
  1 S  1.82851566E+02  0.329968
 
  2 S  3.24040864E+03  0.006591
  2 S  1.00046319E+03  0.068440
  2 S  3.83373017E+02  0.344955
  2 S  1.66039297E+02  0.823155
 
  3 S  8.79199070E+01  1.000000
 
  4 S  3.56758401E+01  1.000000
 
  5 S  1.75436578E+01  1.000000
 
  6 S  8.44736604E+00  1.000000
 
  7 S  3.96661806E+00  1.000000
 
  8 S  1.83568160E+00  1.000000
 
  9 S  5.90847788E-01  1.000000
 
 10 S  2.88632184E-01  1.000000
 
 11 S  1.21533805E-01  1.000000
 
 12 P  2.65664766E+04  0.000062
 12 P  6.29050886E+03  0.000551
 12 P  2.04331784E+03  0.003168
 12 P  7.81672210E+02  0.013817
 12 P  3.31510789E+02  0.048019
 12 P  1.51091987E+02  0.131620
 12 P  7.23952782E+01  0.268601
 12 P  3.58695108E+01  0.368274
 12 P  1.81399062E+01  0.271086
 12 P  9.04666889E+00  0.076215
 
 13 P  2.53718221E+02 -0.001373
 13 P  9.72508181E+01 -0.010394
 13 P  4.20348980E+01 -0.032204
 13 P  9.96856736E+00  0.242248
 13 P  4.93958547E+00  0.535579
 
 14 P  2.43828455E+00  1.000000
 
 15 P  1.18000000E+00  1.000000
 
 16 P  5.10475650E-01  1.000000
 
 17 P  2.12158519E-01  1.000000
 
 18 P  8.39436050E-02  1.000000
 
 19 D  6.01444345E+02  0.000628
 19 D  1.80857186E+02  0.005721
 19 D  6.99868063E+01  0.029003
 19 D  3.03247103E+01  0.096447
 19 D  1.40279092E+01  0.220658
 19 D  6.65117021E+00  0.336576
 19 D  3.13541683E+00  0.348720
 
 20 D  1.43935918E+00  0.209845
 
 21 D  5.93504414E-01  1.000000
 
 22 D  2.30000000E-01  1.000000
 
 23 F  8.25700000E-01  1.000000
 
 24 F  3.40700000E-01  1.000000
 
 25 G  6.49100000E-01  1.000000
 


 Summary of "ao basis" -> "ao basis" (spherical)
 ------------------------------------------------------------------------------
       Tag                 Description            Shells   Functions and Types
 ---------------- ------------------------------  ------  ---------------------
 C                         def2-qzvp                17       57   7s4p3d2f1g
 Br                        def2-qzvp                25       75   11s7p4d2f1g




 Summary of "ao basis" -> "ao basis" (spherical)
 ------------------------------------------------------------------------------
       Tag                 Description            Shells   Functions and Types
 ---------------- ------------------------------  ------  ---------------------
 C                         def2-qzvp                17       57   7s4p3d2f1g
 Br                        def2-qzvp                25       75   11s7p4d2f1g


      Symmetry analysis of basis
      --------------------------
 
        a1g        70
        a1u        28
        a2g        28
        a2u        70
        eg        184
        eu        184
 
 
 
                         Geometry "geometry" -> "geometry"
                         ---------------------------------
 
 Output coordinates in angstroms (scale by  1.889725989 to convert to a.u.)
 
  No.       Tag          Charge          X              Y              Z
 ---- ---------------- ---------- -------------- -------------- --------------
    1 C                    6.0000     0.00000000    -0.00000000     0.78259955
    2 C                    6.0000    -0.00000000     0.00000000    -0.78259955
    3 Br                  35.0000    -1.29993652     1.29993652     1.45955932
    4 Br                  35.0000     1.77574631     0.47580979     1.45955932
    5 Br                  35.0000    -0.47580979    -1.77574631     1.45955932
    6 Br                  35.0000     1.29993652    -1.29993652    -1.45955932
    7 Br                  35.0000     0.47580979     1.77574631    -1.45955932
    8 Br                  35.0000    -1.77574631    -0.47580979    -1.45955932
 
      Atomic Mass 
      ----------- 
 
      C                 12.000000
      Br                79.916500
 

 Effective nuclear repulsion energy (a.u.)    3345.6645606676

            Nuclear Dipole moment (a.u.) 
            ----------------------------
        X                 Y               Z
 ---------------- ---------------- ----------------
     0.0000000000     0.0000000000     0.0000000000
 
      Symmetry information
      --------------------
 
 Group name             D3d       
 Group number             33
 Group order              12
 No. of unique centers     2
 
      Symmetry unique atoms
 
     1    3
 


                                Z-matrix (autoz)
                                -------- 

 Units are Angstrom for bonds and degrees for angles
 
      Type          Name      I     J     K     L     M      Value
      ----------- --------  ----- ----- ----- ----- ----- ----------
    1 Stretch                  1     2                       1.56520
    2 Stretch                  1     3                       1.95907
    3 Stretch                  1     4                       1.95907
    4 Stretch                  1     5                       1.95907
    5 Stretch                  2     6                       1.95907
    6 Stretch                  2     7                       1.95907
    7 Stretch                  2     8                       1.95907
    8 Bend                     1     2     6               110.21550
    9 Bend                     1     2     7               110.21550
   10 Bend                     1     2     8               110.21550
   11 Bend                     2     1     3               110.21550
   12 Bend                     2     1     4               110.21550
   13 Bend                     2     1     5               110.21550
   14 Bend                     3     1     4               108.71680
   15 Bend                     3     1     5               108.71680
   16 Bend                     4     1     5               108.71680
   17 Bend                     6     2     7               108.71680
   18 Bend                     6     2     8               108.71680
   19 Bend                     7     2     8               108.71680
   20 Torsion                  3     1     2     6         180.00000
   21 Torsion                  3     1     2     7          60.00000
   22 Torsion                  3     1     2     8         -60.00000
   23 Torsion                  4     1     2     6          60.00000
   24 Torsion                  4     1     2     7         -60.00000
   25 Torsion                  4     1     2     8         180.00000
   26 Torsion                  5     1     2     6         -60.00000
   27 Torsion                  5     1     2     7         180.00000
   28 Torsion                  5     1     2     8          60.00000
 
 
  Caching 1-el integrals 
  Rotation of axis 
 
            General Information
            -------------------
          SCF calculation type: DFT
          Wavefunction type:  closed shell.
          No. of atoms     :     8
          No. of electrons :   222
           Alpha electrons :   111
            Beta electrons :   111
          Charge           :     0
          Spin multiplicity:     1
          Use of symmetry is: on ; symmetry adaption is: on 
          Maximum number of iterations:  50
          This is a Direct SCF calculation.
          AO basis - number of functions:   564
                     number of shells:   184
          Convergence on energy requested:  1.00D-06
          Convergence on density requested:  1.00D-05
          Convergence on gradient requested:  5.00D-04
 
              XC Information
              --------------
                  TPSS metaGGA Exchange Functional  1.000          
             TPSS03 metaGGA Correlation Functional  1.000          
 
             Grid Information
             ----------------
          Grid used for XC integration:  fine      
          Radial quadrature: Mura-Knowles        
          Angular quadrature: Lebedev. 
          Tag              B.-S. Rad. Rad. Pts. Rad. Cut. Ang. Pts.
          ---              ---------- --------- --------- ---------
          C                   0.70       70          11.0       590
          Br                  1.15      140          13.0       974
          Grid pruning is: on 
          Number of quadrature shells:   210
          Spatial weights used:  Erf1
 
          Convergence Information
          -----------------------
          Convergence aids based upon iterative change in 
          total energy or number of iterations. 
          Levelshifting, if invoked, occurs when the 
          HOMO/LUMO gap drops below (HL_TOL):  1.00D-02
          DIIS, if invoked, will attempt to extrapolate 
          using up to (NFOCK): 10 stored Fock matrices.

                    Damping( 0%)  Levelshifting(0.5)       DIIS
                  --------------- ------------------- ---------------
          dE  on:    start            ASAP                start   
          dE off:    2 iters         50 iters            50 iters 

 
      Screening Tolerance Information
      -------------------------------
          Density screening/tol_rho:  1.00D-10
          AO Gaussian exp screening on grid/accAOfunc:  14
          CD Gaussian exp screening on grid/accCDfunc:  20
          XC Gaussian exp screening on grid/accXCfunc:  20
          Schwarz screening/accCoul:  1.00D-08

 
 
                         Geometry "geometry" -> "geometry"
                         ---------------------------------
 
 Output coordinates in angstroms (scale by  1.889725989 to convert to a.u.)
 
  No.       Tag          Charge          X              Y              Z
 ---- ---------------- ---------- -------------- -------------- --------------
    1 C                    6.0000     0.00000000    -0.00000000     0.78259955
    2 C                    6.0000    -0.00000000     0.00000000    -0.78259955
    3 Br                  35.0000    -1.29993652     1.29993652     1.45955932
    4 Br                  35.0000     1.77574631     0.47580979     1.45955932
    5 Br                  35.0000    -0.47580979    -1.77574631     1.45955932
    6 Br                  35.0000     1.29993652    -1.29993652    -1.45955932
    7 Br                  35.0000     0.47580979     1.77574631    -1.45955932
    8 Br                  35.0000    -1.77574631    -0.47580979    -1.45955932
 
      Atomic Mass 
      ----------- 
 
      C                 12.000000
      Br                79.916500
 

 Effective nuclear repulsion energy (a.u.)    3345.6645606676

            Nuclear Dipole moment (a.u.) 
            ----------------------------
        X                 Y               Z
 ---------------- ---------------- ----------------
     0.0000000000     0.0000000000     0.0000000000
 
      Symmetry information
      --------------------
 
 Group name             D3d       
 Group number             33
 Group order              12
 No. of unique centers     2
 
      Symmetry unique atoms
 
     1    3
 


                                Z-matrix (autoz)
                                -------- 

 Units are Angstrom for bonds and degrees for angles
 
      Type          Name      I     J     K     L     M      Value
      ----------- --------  ----- ----- ----- ----- ----- ----------
    1 Stretch                  1     2                       1.56520
    2 Stretch                  1     3                       1.95907
    3 Stretch                  1     4                       1.95907
    4 Stretch                  1     5                       1.95907
    5 Stretch                  2     6                       1.95907
    6 Stretch                  2     7                       1.95907
    7 Stretch                  2     8                       1.95907
    8 Bend                     1     2     6               110.21550
    9 Bend                     1     2     7               110.21550
   10 Bend                     1     2     8               110.21550
   11 Bend                     2     1     3               110.21550
   12 Bend                     2     1     4               110.21550
   13 Bend                     2     1     5               110.21550
   14 Bend                     3     1     4               108.71680
   15 Bend                     3     1     5               108.71680
   16 Bend                     4     1     5               108.71680
   17 Bend                     6     2     7               108.71680
   18 Bend                     6     2     8               108.71680
   19 Bend                     7     2     8               108.71680
   20 Torsion                  3     1     2     6         180.00000
   21 Torsion                  3     1     2     7          60.00000
   22 Torsion                  3     1     2     8         -60.00000
   23 Torsion                  4     1     2     6          60.00000
   24 Torsion                  4     1     2     7         -60.00000
   25 Torsion                  4     1     2     8         180.00000
   26 Torsion                  5     1     2     6         -60.00000
   27 Torsion                  5     1     2     7         180.00000
   28 Torsion                  5     1     2     8          60.00000
 
      Dispersion Parameters
      ---------------------

           DFT-D3BJ Model   
          s6 scale factor  :        1.000000000000
          s8 scale factor  :        1.943500000000
          a1 parameter     :        0.453500000000
          a2 parameter     :        4.475200000000
              vdW contrib  :       -0.029375224477

 
      Superposition of Atomic Density Guess
      -------------------------------------
 
 Sum of atomic energies:      -15510.03331378
 
      Non-variational initial energy
      ------------------------------

 Total energy =  -15512.034234
 1-e energy   =  -28282.709233
 2-e energy   =    9425.010438
 HOMO         =      -0.323626
 LUMO         =      -0.046813
 
 
      Symmetry analysis of molecular orbitals - initial
      -------------------------------------------------
 
  Numbering of irreducible representations: 
 
     1 a1g         2 a1u         3 a2g         4 a2u         5 eg      
     6 eu      
 
  Orbital symmetries:
 
     1 a1g         2 a2u         3 eu          4 eu          5 eg      
     6 eg          7 a1g         8 a2u         9 eu         10 eu      
    11 eg         12 eg         13 a1g        14 a2u        15 eu      
    16 eu         17 eg         18 eg         19 a1g        20 a2u     
    21 eu         22 eu         23 eg         24 eg         25 eu      
    26 eu         27 eg         28 eg         29 a2g        30 a1u     
    31 a1g        32 a2u        33 a1g        34 a2u        35 eu      
    36 eu         37 eg         38 eg         39 a1g        40 a2u     
    41 eu         42 eu         43 eg         44 eg         45 a1g     
    46 eg         47 eg         48 eu         49 eu         50 a2u     
    51 eu         52 eu         53 eg         54 eg         55 a1u     
    56 a2g        57 a1g        58 a2u        59 eu         60 eu      
    61 eg         62 eg         63 a1g        64 eg         65 eg      
    66 eu         67 eu         68 a2u        69 eu         70 eu      
    71 eg         72 eg         73 a1u        74 a2g        75 a2u     
    76 eg         77 eg         78 a1g        79 eu         80 eu      
    81 a1u        82 eg         83 eg         84 eu         85 eu      
    86 a2g        87 a1g        88 a2u        89 eu         90 eu      
    91 eg         92 eg         93 a1g        94 a2u        95 eu      
    96 eu         97 a1g        98 eg         99 eg        100 eg      
   101 eg        102 eu        103 eu        104 a2u       105 eu      
   106 eu        107 a1g       108 a1u       109 eg        110 eg      
   111 a2g       112 a2u       113 a1g       114 eu        115 eu      
   116 eg        117 eg        118 a1g       119 eu        120 eu      
   121 a2u     
 
   Time after variat. SCF:      2.4
   Time prior to 1st pass:      2.4

 !! scf_movecs_sym_adapt:   11 vectors were symmetry contaminated

  Symmetry fudging

           Memory utilization after 1st SCF pass: 
           Heap Space remaining (MW):       26.20            26195886
          Stack Space remaining (MW):       26.21            26211388

   convergence    iter        energy       DeltaE   RMS-Dens  Diis-err    time
 ---------------- ----- ----------------- --------- --------- ---------  ------
 d= 0,ls=0.0,diis     1 -15520.4694084089 -1.89D+04  5.17D-03  2.68D+01     5.6

 !! scf_movecs_sym_adapt:   15 vectors were symmetry contaminated

  Symmetry fudging
 d= 0,ls=0.0,diis     2 -15515.9783235086  4.49D+00  6.76D-03  5.00D+01     8.2

 !! scf_movecs_sym_adapt:   16 vectors were symmetry contaminated

  Symmetry fudging
 d= 0,ls=0.0,diis     3 -15518.7702600199 -2.79D+00  4.49D-03  1.56D+01    12.0

 !! scf_movecs_sym_adapt:   19 vectors were symmetry contaminated

  Symmetry fudging
 d= 0,ls=0.0,diis     4 -15520.6045423954 -1.83D+00  1.20D-03  2.95D+00    15.7

 !! scf_movecs_sym_adapt:   22 vectors were symmetry contaminated

  Symmetry fudging

 !! scf_movecs_sym_adapt:    2 vectors were symmetry contaminated

 d= 0,ls=0.0,diis     5 -15520.9127851076 -3.08D-01  3.81D-04  2.94D-01    19.5

 !! scf_movecs_sym_adapt:   22 vectors were symmetry contaminated

  Symmetry fudging

 !! scf_movecs_sym_adapt:    3 vectors were symmetry contaminated

  Resetting Diis
 d= 0,ls=0.0,diis     6 -15520.9366557540 -2.39D-02  1.49D-04  4.45D-02    23.3

 !! scf_movecs_sym_adapt:   20 vectors were symmetry contaminated

  Symmetry fudging

 !! scf_movecs_sym_adapt:    2 vectors were symmetry contaminated

 d= 0,ls=0.0,diis     7 -15520.9417099545 -5.05D-03  6.96D-05  1.46D-03    27.1

 !! scf_movecs_sym_adapt:   19 vectors were symmetry contaminated

  Symmetry fudging

 !! scf_movecs_sym_adapt:    2 vectors were symmetry contaminated

 d= 0,ls=0.0,diis     8 -15520.9415604133  1.50D-04  5.38D-05  2.98D-03    30.3

 !! scf_movecs_sym_adapt:   21 vectors were symmetry contaminated

  Symmetry fudging

 !! scf_movecs_sym_adapt:    5 vectors were symmetry contaminated

 d= 0,ls=0.0,diis     9 -15520.9416939400 -1.34D-04  2.02D-05  8.82D-04    34.2

 !! scf_movecs_sym_adapt:   22 vectors were symmetry contaminated

  Symmetry fudging

 !! scf_movecs_sym_adapt:    2 vectors were symmetry contaminated

 d= 0,ls=0.0,diis    10 -15520.9417989868 -1.05D-04  2.19D-06  1.80D-06    37.3

 !! scf_movecs_sym_adapt:   21 vectors were symmetry contaminated

  Symmetry fudging

 !! scf_movecs_sym_adapt:    4 vectors were symmetry contaminated

 d= 0,ls=0.0,diis    11 -15520.9417991703 -1.84D-07  8.20D-07  2.26D-07    41.3


         Total DFT energy =   -15520.941799170323
      One electron energy =   -28278.384351279266
           Coulomb energy =     9969.923745418017
    Exchange-Corr. energy =     -558.116378752163
 Nuclear repulsion energy =     3345.664560667567

    Dispersion correction =       -0.029375224477

 Numeric. integr. density =      221.999999677409

     Total iterative time =     38.9s


 
                  Occupations of the irreducible representations
                  ----------------------------------------------
 
                     irrep           alpha         beta
                     --------     --------     --------
                     a1g              15.0         15.0
                     a1u               5.0          5.0
                     a2g               5.0          5.0
                     a2u              14.0         14.0
                     eg               36.0         36.0
                     eu               36.0         36.0
 
 
                       DFT Final Molecular Orbital Analysis
                       ------------------------------------
 
 Vector    1  Occ=2.000000D+00  E=-4.817485D+02  Symmetry=eu
              MO Center=  0.0D+00, -6.1D-16,  5.6D-17, r^2= 5.5D+00
   Bfn.  Coefficient  Atom+Function         Bfn.  Coefficient  Atom+Function  
  ----- ------------  ---------------      ----- ------------  ---------------
   265      0.480112  5 Br s                415     -0.480112  7 Br s          
   190     -0.383056  4 Br s                490      0.383056  8 Br s          
   115     -0.097056  3 Br s                340      0.097056  6 Br s          
   267      0.083885  5 Br s                417     -0.083885  7 Br s          
   192     -0.066927  4 Br s                492      0.066927  8 Br s          
 
 Vector    2  Occ=2.000000D+00  E=-4.817485D+02  Symmetry=eu
              MO Center=  1.9D-16, -1.1D-16,  1.1D-16, r^2= 5.5D+00
   Bfn.  Coefficient  Atom+Function         Bfn.  Coefficient  Atom+Function  
  ----- ------------  ---------------      ----- ------------  ---------------
   115      0.498350  3 Br s                340     -0.498350  6 Br s          
   190     -0.333228  4 Br s                490      0.333228  8 Br s          
   265     -0.165122  5 Br s                415      0.165122  7 Br s          
   117      0.087072  3 Br s                342     -0.087072  6 Br s          
   192     -0.058222  4 Br s                492      0.058222  8 Br s          
 
 Vector    3  Occ=2.000000D+00  E=-4.817485D+02  Symmetry=eg
              MO Center= -5.0D-16, -2.8D-16,  5.6D-16, r^2= 5.5D+00
   Bfn.  Coefficient  Atom+Function         Bfn.  Coefficient  Atom+Function  
  ----- ------------  ---------------      ----- ------------  ---------------
   115      0.439164  3 Br s                265     -0.440218  5 Br s          
   340      0.439164  6 Br s                415     -0.440218  7 Br s          
   117      0.076731  3 Br s                267     -0.076915  5 Br s          
   342      0.076731  6 Br s                417     -0.076915  7 Br s          
 
 Vector    4  Occ=2.000000D+00  E=-4.817485D+02  Symmetry=eg
              MO Center=  2.2D-16, -2.8D-16,  1.1D-16, r^2= 5.5D+00
   Bfn.  Coefficient  Atom+Function         Bfn.  Coefficient  Atom+Function  
  ----- ------------  ---------------      ----- ------------  ---------------
   190      0.507712  4 Br s                490      0.507712  8 Br s          
   115     -0.254769  3 Br s                340     -0.254769  6 Br s          
   265     -0.252943  5 Br s                415     -0.252943  7 Br s          
   192      0.088707  4 Br s                492      0.088707  8 Br s          
   117     -0.044513  3 Br s                342     -0.044513  6 Br s          
 
 Vector    5  Occ=2.000000D+00  E=-4.817485D+02  Symmetry=a2u
              MO Center=  1.5D-16,  0.0D+00, -2.2D-16, r^2= 5.5D+00
   Bfn.  Coefficient  Atom+Function         Bfn.  Coefficient  Atom+Function  
  ----- ------------  ---------------      ----- ------------  ---------------
   115      0.359007  3 Br s                190      0.359007  4 Br s          
   265      0.359007  5 Br s                340     -0.359007  6 Br s          
   415     -0.359007  7 Br s                490     -0.359007  8 Br s          
   117      0.062726  3 Br s                192      0.062726  4 Br s          
   267      0.062726  5 Br s                342     -0.062726  6 Br s          
 
 Vector    6  Occ=2.000000D+00  E=-4.817485D+02  Symmetry=a1g
              MO Center=  1.9D-16, -2.2D-16,  1.7D-16, r^2= 5.5D+00
   Bfn.  Coefficient  Atom+Function         Bfn.  Coefficient  Atom+Function  
  ----- ------------  ---------------      ----- ------------  ---------------
   115      0.359007  3 Br s                190      0.359007  4 Br s          
   265      0.359007  5 Br s                340      0.359007  6 Br s          
   415      0.359007  7 Br s                490      0.359007  8 Br s          
   117      0.062726  3 Br s                192      0.062726  4 Br s          
   267      0.062726  5 Br s                342      0.062726  6 Br s          
 
 Vector    7  Occ=2.000000D+00  E=-6.195933D+01  Symmetry=eu
              MO Center=  1.1D-16, -1.1D-16, -5.6D-16, r^2= 5.5D+00
   Bfn.  Coefficient  Atom+Function         Bfn.  Coefficient  Atom+Function  
  ----- ------------  ---------------      ----- ------------  ---------------
   119      0.319724  3 Br s                344     -0.319724  6 Br s          
   118      0.234410  3 Br s                343     -0.234410  6 Br s          
   194     -0.213859  4 Br s                494      0.213859  8 Br s          
   115     -0.157244  3 Br s                193     -0.156794  4 Br s          
   340      0.157244  6 Br s                493      0.156794  8 Br s          
 
 Vector    8  Occ=2.000000D+00  E=-6.195933D+01  Symmetry=eu
              MO Center=  1.0D-08,  1.9D-08, -1.6D-08, r^2= 5.5D+00
   Bfn.  Coefficient  Atom+Function         Bfn.  Coefficient  Atom+Function  
  ----- ------------  ---------------      ----- ------------  ---------------
   269      0.308064  5 Br s                419     -0.308064  7 Br s          
   194     -0.245714  4 Br s                494      0.245714  8 Br s          
   268      0.225862  5 Br s                418     -0.225862  7 Br s          
   193     -0.180149  4 Br s                493      0.180149  8 Br s          
   265     -0.151510  5 Br s                415      0.151510  7 Br s          
 
 Vector    9  Occ=2.000000D+00  E=-6.195933D+01  Symmetry=eg
              MO Center=  2.3D-09, -1.7D-09,  4.0D-09, r^2= 5.5D+00
   Bfn.  Coefficient  Atom+Function         Bfn.  Coefficient  Atom+Function  
  ----- ------------  ---------------      ----- ------------  ---------------
   194      0.319591  4 Br s                494      0.319591  8 Br s          
   193      0.234301  4 Br s                493      0.234301  8 Br s          
   269     -0.214427  5 Br s                419     -0.214427  7 Br s          
   190     -0.157174  4 Br s                268     -0.157202  5 Br s          
   418     -0.157202  7 Br s                490     -0.157174  8 Br s          
 
 Vector   10  Occ=2.000000D+00  E=-6.195933D+01  Symmetry=eg
              MO Center= -9.0D-09, -1.2D-08,  1.2D-08, r^2= 5.5D+00
   Bfn.  Coefficient  Atom+Function         Bfn.  Coefficient  Atom+Function  
  ----- ------------  ---------------      ----- ------------  ---------------
   119      0.308315  3 Br s                344      0.308315  6 Br s          
   269     -0.245232  5 Br s                419     -0.245232  7 Br s          
   118      0.226035  3 Br s                343      0.226035  6 Br s          
   268     -0.179787  5 Br s                418     -0.179787  7 Br s          
   115     -0.151628  3 Br s                340     -0.151628  6 Br s          
 
 Vector   11  Occ=2.000000D+00  E=-6.195933D+01  Symmetry=a2u
              MO Center=  2.8D-17,  4.4D-16, -3.9D-16, r^2= 5.5D+00
   Bfn.  Coefficient  Atom+Function         Bfn.  Coefficient  Atom+Function  
  ----- ------------  ---------------      ----- ------------  ---------------
   119      0.230348  3 Br s                194      0.230348  4 Br s          
   269      0.230348  5 Br s                344     -0.230348  6 Br s          
   419     -0.230348  7 Br s                494     -0.230348  8 Br s          
   118      0.168872  3 Br s                193      0.168872  4 Br s          
   268      0.168872  5 Br s                343     -0.168872  6 Br s          
 
 Vector   12  Occ=2.000000D+00  E=-6.195933D+01  Symmetry=a1g
              MO Center= -3.8D-09, -5.6D-09,  0.0D+00, r^2= 5.5D+00
   Bfn.  Coefficient  Atom+Function         Bfn.  Coefficient  Atom+Function  
  ----- ------------  ---------------      ----- ------------  ---------------
   119      0.230359  3 Br s                194      0.230359  4 Br s          
   269      0.230359  5 Br s                344      0.230359  6 Br s          
   419      0.230359  7 Br s                494      0.230359  8 Br s          
   118      0.168867  3 Br s                193      0.168867  4 Br s          
   268      0.168867  5 Br s                343      0.168867  6 Br s          
 
 Vector   13  Occ=2.000000D+00  E=-5.579588D+01  Symmetry=eu
              MO Center= -2.8D-17,  5.6D-17, -2.2D-16, r^2= 5.5D+00
   Bfn.  Coefficient  Atom+Function         Bfn.  Coefficient  Atom+Function  
  ----- ------------  ---------------      ----- ------------  ---------------
   126      0.372847  3 Br px               127     -0.372847  3 Br py         
   351      0.372847  6 Br px               352     -0.372847  6 Br py         
   201      0.341336  4 Br px               501      0.341336  8 Br px         
   128     -0.203514  3 Br pz               353     -0.203514  6 Br pz         
   277     -0.167983  5 Br py               427     -0.167983  7 Br py         
 
 Vector   14  Occ=2.000000D+00  E=-5.579588D+01  Symmetry=eu
              MO Center= -5.6D-17,  2.1D-16, -1.7D-16, r^2= 5.5D+00
   Bfn.  Coefficient  Atom+Function         Bfn.  Coefficient  Atom+Function  
  ----- ------------  ---------------      ----- ------------  ---------------
   277      0.491126  5 Br py               427      0.491126  7 Br py         
   201      0.391040  4 Br px               501      0.391040  8 Br px         
   278     -0.196244  5 Br pz               428     -0.196244  7 Br pz         
   203      0.156252  4 Br pz               503      0.156252  8 Br pz         
   276      0.131597  5 Br px               426      0.131597  7 Br px         
 
 Vector   15  Occ=2.000000D+00  E=-5.579588D+01  Symmetry=eg
              MO Center= -1.1D-16, -6.7D-16,  2.2D-16, r^2= 5.5D+00
   Bfn.  Coefficient  Atom+Function         Bfn.  Coefficient  Atom+Function  
  ----- ------------  ---------------      ----- ------------  ---------------
   201      0.518296  4 Br px               501     -0.518296  8 Br px         
   277      0.234769  5 Br py               427     -0.234769  7 Br py         
   126      0.207556  3 Br px               127     -0.207556  3 Br py         
   203      0.207101  4 Br pz               351     -0.207556  6 Br px         
   352      0.207556  6 Br py               503     -0.207101  8 Br pz         
 
 Vector   16  Occ=2.000000D+00  E=-5.579588D+01  Symmetry=eg
              MO Center= -5.6D-17, -4.4D-16, -3.9D-16, r^2= 5.5D+00
   Bfn.  Coefficient  Atom+Function         Bfn.  Coefficient  Atom+Function  
  ----- ------------  ---------------      ----- ------------  ---------------
   277      0.462932  5 Br py               427     -0.462932  7 Br py         
   126     -0.318282  3 Br px               127      0.318282  3 Br py         
   351      0.318282  6 Br px               352     -0.318282  6 Br py         
   278     -0.184979  5 Br pz               428      0.184979  7 Br pz         
   128      0.173730  3 Br pz               353     -0.173730  6 Br pz         
 
 Vector   17  Occ=2.000000D+00  E=-5.579588D+01  Symmetry=a2u
              MO Center=  2.8D-17, -4.4D-16, -1.7D-16, r^2= 5.5D+00
   Bfn.  Coefficient  Atom+Function         Bfn.  Coefficient  Atom+Function  
  ----- ------------  ---------------      ----- ------------  ---------------
   201      0.367030  4 Br px               277     -0.367030  5 Br py         
   427     -0.367030  7 Br py               501      0.367030  8 Br px         
   126     -0.268685  3 Br px               127      0.268685  3 Br py         
   351     -0.268685  6 Br px               352      0.268685  6 Br py         
   128      0.146658  3 Br pz               203      0.146658  4 Br pz         
 
 Vector   18  Occ=2.000000D+00  E=-5.579588D+01  Symmetry=a1g
              MO Center= -6.9D-17,  1.7D-16,  7.2D-16, r^2= 5.5D+00
   Bfn.  Coefficient  Atom+Function         Bfn.  Coefficient  Atom+Function  
  ----- ------------  ---------------      ----- ------------  ---------------
   201      0.367030  4 Br px               277     -0.367030  5 Br py         
   427      0.367030  7 Br py               501     -0.367030  8 Br px         
   126     -0.268685  3 Br px               127      0.268685  3 Br py         
   351      0.268685  6 Br px               352     -0.268685  6 Br py         
   128      0.146658  3 Br pz               203      0.146658  4 Br pz         
 
 Vector   19  Occ=2.000000D+00  E=-5.579091D+01  Symmetry=eg
              MO Center=  0.0D+00, -5.6D-17,  3.3D-16, r^2= 5.5D+00
   Bfn.  Coefficient  Atom+Function         Bfn.  Coefficient  Atom+Function  
  ----- ------------  ---------------      ----- ------------  ---------------
   203      0.532820  4 Br pz               503     -0.532820  8 Br pz         
   278     -0.326927  5 Br pz               428      0.326927  7 Br pz         
   128     -0.205893  3 Br pz               353      0.205893  6 Br pz         
   201     -0.198642  4 Br px               501      0.198642  8 Br px         
   277     -0.121882  5 Br py               427      0.121882  7 Br py         
 
 Vector   20  Occ=2.000000D+00  E=-5.579091D+01  Symmetry=eg
              MO Center= -1.1D-16,  5.6D-17,  1.1D-16, r^2= 5.5D+00
   Bfn.  Coefficient  Atom+Function         Bfn.  Coefficient  Atom+Function  
  ----- ------------  ---------------      ----- ------------  ---------------
   128      0.496375  3 Br pz               353     -0.496375  6 Br pz         
   278     -0.426496  5 Br pz               428      0.426496  7 Br pz         
   277     -0.159004  5 Br py               427      0.159004  7 Br py         
   126      0.135470  3 Br px               127     -0.135470  3 Br py         
   351     -0.135470  6 Br px               352      0.135470  6 Br py         
 
 Vector   21  Occ=2.000000D+00  E=-5.579091D+01  Symmetry=a2u
              MO Center=  2.2D-16, -1.1D-16, -2.8D-16, r^2= 5.5D+00
   Bfn.  Coefficient  Atom+Function         Bfn.  Coefficient  Atom+Function  
  ----- ------------  ---------------      ----- ------------  ---------------
   128      0.379987  3 Br pz               203      0.379987  4 Br pz         
   278      0.379987  5 Br pz               353      0.379987  6 Br pz         
   428      0.379987  7 Br pz               503      0.379987  8 Br pz         
   201     -0.141664  4 Br px               277      0.141664  5 Br py         
   427      0.141664  7 Br py               501     -0.141664  8 Br px         
 
 Vector   22  Occ=2.000000D+00  E=-5.579091D+01  Symmetry=eu
              MO Center=  1.1D-16,  3.3D-16, -3.3D-16, r^2= 5.5D+00
   Bfn.  Coefficient  Atom+Function         Bfn.  Coefficient  Atom+Function  
  ----- ------------  ---------------      ----- ------------  ---------------
   278      0.508212  5 Br pz               428      0.508212  7 Br pz         
   203     -0.405352  4 Br pz               503     -0.405352  8 Br pz         
   277      0.189468  5 Br py               427      0.189468  7 Br py         
   201      0.151121  4 Br px               501      0.151121  8 Br px         
   128     -0.102860  3 Br pz               353     -0.102860  6 Br pz         
 
 Vector   23  Occ=2.000000D+00  E=-5.579091D+01  Symmetry=eu
              MO Center=  2.2D-16,  5.0D-16,  2.2D-16, r^2= 5.5D+00
   Bfn.  Coefficient  Atom+Function         Bfn.  Coefficient  Atom+Function  
  ----- ------------  ---------------      ----- ------------  ---------------
   128      0.527447  3 Br pz               353      0.527447  6 Br pz         
   203     -0.352802  4 Br pz               503     -0.352802  8 Br pz         
   278     -0.174644  5 Br pz               428     -0.174644  7 Br pz         
   126      0.143950  3 Br px               127     -0.143950  3 Br py         
   351      0.143950  6 Br px               352     -0.143950  6 Br py         
 
 Vector   24  Occ=2.000000D+00  E=-5.579091D+01  Symmetry=a1g
              MO Center=  8.3D-17, -2.8D-16, -2.8D-16, r^2= 5.5D+00
   Bfn.  Coefficient  Atom+Function         Bfn.  Coefficient  Atom+Function  
  ----- ------------  ---------------      ----- ------------  ---------------
   128      0.379987  3 Br pz               203      0.379987  4 Br pz         
   278      0.379987  5 Br pz               353     -0.379987  6 Br pz         
   428     -0.379987  7 Br pz               503     -0.379987  8 Br pz         
   201     -0.141664  4 Br px               277      0.141664  5 Br py         
   427     -0.141664  7 Br py               501      0.141664  8 Br px         
 
 Vector   25  Occ=2.000000D+00  E=-5.579083D+01  Symmetry=a2g
              MO Center=  2.4D-16, -1.7D-16, -2.2D-16, r^2= 5.5D+00
   Bfn.  Coefficient  Atom+Function         Bfn.  Coefficient  Atom+Function  
  ----- ------------  ---------------      ----- ------------  ---------------
   202      0.393429  4 Br py               276      0.393429  5 Br px         
   426     -0.393429  7 Br px               502     -0.393429  8 Br py         
   126     -0.288010  3 Br px               127     -0.288010  3 Br py         
   351      0.288010  6 Br px               352      0.288010  6 Br py         
   201     -0.105419  4 Br px               277     -0.105419  5 Br py         
 
 Vector   26  Occ=2.000000D+00  E=-5.579083D+01  Symmetry=a1u
              MO Center=  3.5D-16,  2.2D-16, -5.6D-17, r^2= 5.5D+00
   Bfn.  Coefficient  Atom+Function         Bfn.  Coefficient  Atom+Function  
  ----- ------------  ---------------      ----- ------------  ---------------
   202      0.393429  4 Br py               276      0.393429  5 Br px         
   426      0.393429  7 Br px               502      0.393429  8 Br py         
   126     -0.288010  3 Br px               127     -0.288010  3 Br py         
   351     -0.288010  6 Br px               352     -0.288010  6 Br py         
   201     -0.105419  4 Br px               277     -0.105419  5 Br py         
 
 Vector   27  Occ=2.000000D+00  E=-5.579083D+01  Symmetry=eg
              MO Center= -1.7D-16, -1.7D-16,  1.1D-16, r^2= 5.5D+00
   Bfn.  Coefficient  Atom+Function         Bfn.  Coefficient  Atom+Function  
  ----- ------------  ---------------      ----- ------------  ---------------
   202      0.495026  4 Br py               502     -0.495026  8 Br py         
   276     -0.467494  5 Br px               426      0.467494  7 Br px         
   201     -0.132642  4 Br px               501      0.132642  8 Br px         
   277      0.125265  5 Br py               427     -0.125265  7 Br py         
 
 Vector   28  Occ=2.000000D+00  E=-5.579083D+01  Symmetry=eg
              MO Center= -2.8D-16, -1.1D-16,  0.0D+00, r^2= 5.5D+00
   Bfn.  Coefficient  Atom+Function         Bfn.  Coefficient  Atom+Function  
  ----- ------------  ---------------      ----- ------------  ---------------
   126      0.406809  3 Br px               127      0.406809  3 Br py         
   351     -0.406809  6 Br px               352     -0.406809  6 Br py         
   276      0.301699  5 Br px               426     -0.301699  7 Br px         
   202      0.254012  4 Br py               502     -0.254012  8 Br py         
   277     -0.080840  5 Br py               427      0.080840  7 Br py         
 
 Vector   29  Occ=2.000000D+00  E=-5.579083D+01  Symmetry=eu
              MO Center=  5.6D-17,  6.0D-16, -2.8D-16, r^2= 5.5D+00
   Bfn.  Coefficient  Atom+Function         Bfn.  Coefficient  Atom+Function  
  ----- ------------  ---------------      ----- ------------  ---------------
   276      0.526057  5 Br px               426      0.526057  7 Br px         
   202     -0.419960  4 Br py               502     -0.419960  8 Br py         
   277     -0.140957  5 Br py               427     -0.140957  7 Br py         
   201      0.112528  4 Br px               501      0.112528  8 Br px         
   126      0.077669  3 Br px               127      0.077669  3 Br py         
 
 Vector   30  Occ=2.000000D+00  E=-5.579083D+01  Symmetry=eu
              MO Center=  2.5D-16, -1.7D-16, -5.6D-16, r^2= 5.5D+00
   Bfn.  Coefficient  Atom+Function         Bfn.  Coefficient  Atom+Function  
  ----- ------------  ---------------      ----- ------------  ---------------
   126      0.399834  3 Br px               127      0.399834  3 Br py         
   351      0.399834  6 Br px               352      0.399834  6 Br py         
   202      0.364975  4 Br py               502      0.364975  8 Br py         
   276      0.181209  5 Br px               426      0.181209  7 Br px         
   201     -0.097795  4 Br px               501     -0.097795  8 Br px         
 
 Vector   31  Occ=2.000000D+00  E=-1.018207D+01  Symmetry=a1g
              MO Center= -3.4D-21,  1.2D-20, -2.1D-16, r^2= 6.4D-01
   Bfn.  Coefficient  Atom+Function         Bfn.  Coefficient  Atom+Function  
  ----- ------------  ---------------      ----- ------------  ---------------
     1      0.387109  1 C  s                 58      0.387109  2 C  s          
     3      0.258075  1 C  s                 60      0.258075  2 C  s          
     4      0.126508  1 C  s                 61      0.126508  2 C  s          
 
 Vector   32  Occ=2.000000D+00  E=-1.018199D+01  Symmetry=a2u
              MO Center= -3.5D-19,  2.8D-20,  8.2D-18, r^2= 6.4D-01
   Bfn.  Coefficient  Atom+Function         Bfn.  Coefficient  Atom+Function  
  ----- ------------  ---------------      ----- ------------  ---------------
     1      0.387124  1 C  s                 58     -0.387124  2 C  s          
     3      0.258107  1 C  s                 60     -0.258107  2 C  s          
     4      0.126502  1 C  s                 61     -0.126502  2 C  s          
 
 Vector   33  Occ=2.000000D+00  E=-8.500509D+00  Symmetry=eu
              MO Center=  1.3D-09,  1.5D-09, -1.2D-09, r^2= 5.6D+00
   Bfn.  Coefficient  Atom+Function         Bfn.  Coefficient  Atom+Function  
  ----- ------------  ---------------      ----- ------------  ---------------
   271      0.371794  5 Br s                421     -0.371794  7 Br s          
   196     -0.296545  4 Br s                272      0.297321  5 Br s          
   422     -0.297321  7 Br s                496      0.296545  8 Br s          
   269     -0.280963  5 Br s                419      0.280963  7 Br s          
   197     -0.237145  4 Br s                497      0.237145  8 Br s          
 
 Vector   34  Occ=2.000000D+00  E=-8.500509D+00  Symmetry=eu
              MO Center=  1.2D-09, -5.7D-09, -5.6D-09, r^2= 5.6D+00
   Bfn.  Coefficient  Atom+Function         Bfn.  Coefficient  Atom+Function  
  ----- ------------  ---------------      ----- ------------  ---------------
   121      0.385866  3 Br s                346     -0.385866  6 Br s          
   122      0.308574  3 Br s                347     -0.308574  6 Br s          
   119     -0.291597  3 Br s                344      0.291597  6 Br s          
   196     -0.258101  4 Br s                496      0.258101  8 Br s          
   197     -0.206401  4 Br s                497      0.206401  8 Br s          
 
 Vector   35  Occ=2.000000D+00  E=-8.500509D+00  Symmetry=eg
              MO Center= -8.0D-11,  4.4D-09,  5.1D-09, r^2= 5.6D+00
   Bfn.  Coefficient  Atom+Function         Bfn.  Coefficient  Atom+Function  
  ----- ------------  ---------------      ----- ------------  ---------------
   196      0.378001  4 Br s                496      0.378001  8 Br s          
   197      0.302556  4 Br s                497      0.302556  8 Br s          
   194     -0.285774  4 Br s                494     -0.285774  8 Br s          
   121     -0.282167  3 Br s                346     -0.282167  6 Br s          
   122     -0.225850  3 Br s                347     -0.225850  6 Br s          
 
 Vector   36  Occ=2.000000D+00  E=-8.500509D+00  Symmetry=eg
              MO Center= -6.1D-11, -2.4D-09,  1.8D-09, r^2= 5.6D+00
   Bfn.  Coefficient  Atom+Function         Bfn.  Coefficient  Atom+Function  
  ----- ------------  ---------------      ----- ------------  ---------------
   271      0.381148  5 Br s                421      0.381148  7 Br s          
   272      0.305075  5 Br s                422      0.305075  7 Br s          
   269     -0.288154  5 Br s                419     -0.288154  7 Br s          
   121     -0.273568  3 Br s                346     -0.273568  6 Br s          
   122     -0.218967  3 Br s                347     -0.218967  6 Br s          
 
 Vector   37  Occ=2.000000D+00  E=-8.500509D+00  Symmetry=a2u
              MO Center=  1.5D-11,  9.4D-10, -4.4D-10, r^2= 5.6D+00
   Bfn.  Coefficient  Atom+Function         Bfn.  Coefficient  Atom+Function  
  ----- ------------  ---------------      ----- ------------  ---------------
   121      0.277873  3 Br s                196      0.277873  4 Br s          
   271      0.277873  5 Br s                346     -0.277873  6 Br s          
   421     -0.277873  7 Br s                496     -0.277873  8 Br s          
   122      0.222470  3 Br s                197      0.222470  4 Br s          
   272      0.222470  5 Br s                347     -0.222470  6 Br s          
 
 Vector   38  Occ=2.000000D+00  E=-8.500508D+00  Symmetry=a1g
              MO Center= -2.4D-09,  1.2D-09,  4.4D-10, r^2= 5.6D+00
   Bfn.  Coefficient  Atom+Function         Bfn.  Coefficient  Atom+Function  
  ----- ------------  ---------------      ----- ------------  ---------------
   121      0.277707  3 Br s                196      0.277707  4 Br s          
   271      0.277707  5 Br s                346      0.277707  6 Br s          
   421      0.277707  7 Br s                496      0.277707  8 Br s          
   122      0.222720  3 Br s                197      0.222720  4 Br s          
   272      0.222720  5 Br s                347      0.222720  6 Br s          
 
 Vector   39  Occ=2.000000D+00  E=-6.346877D+00  Symmetry=a1g
              MO Center=  2.4D-09,  2.7D-10, -6.2D-11, r^2= 5.6D+00
   Bfn.  Coefficient  Atom+Function         Bfn.  Coefficient  Atom+Function  
  ----- ------------  ---------------      ----- ------------  ---------------
   204      0.235507  4 Br px               280     -0.235507  5 Br py         
   430      0.235507  7 Br py               504     -0.235507  8 Br px         
   129     -0.172403  3 Br px               130      0.172403  3 Br py         
   354      0.172403  6 Br px               355     -0.172403  6 Br py         
   201     -0.148358  4 Br px               277      0.148358  5 Br py         
 
 Vector   40  Occ=2.000000D+00  E=-6.346877D+00  Symmetry=eu
              MO Center= -1.7D-09,  2.9D-10, -2.8D-09, r^2= 5.6D+00
   Bfn.  Coefficient  Atom+Function         Bfn.  Coefficient  Atom+Function  
  ----- ------------  ---------------      ----- ------------  ---------------
   280      0.314984  5 Br py               430      0.314984  7 Br py         
   204      0.251234  4 Br px               504      0.251234  8 Br px         
   277     -0.198421  5 Br py               427     -0.198421  7 Br py         
   283      0.192916  5 Br py               433      0.192916  7 Br py         
   201     -0.158262  4 Br px               501     -0.158262  8 Br px         
 
 Vector   41  Occ=2.000000D+00  E=-6.346877D+00  Symmetry=eu
              MO Center= -1.5D-09,  1.0D-09, -2.2D-16, r^2= 5.6D+00
   Bfn.  Coefficient  Atom+Function         Bfn.  Coefficient  Atom+Function  
  ----- ------------  ---------------      ----- ------------  ---------------
   129      0.239312  3 Br px               130     -0.239312  3 Br py         
   354      0.239312  6 Br px               355     -0.239312  6 Br py         
   204      0.218663  4 Br px               504      0.218663  8 Br px         
   126     -0.150752  3 Br px               127      0.150752  3 Br py         
   351     -0.150752  6 Br px               352      0.150752  6 Br py         
 
 Vector   42  Occ=2.000000D+00  E=-6.346877D+00  Symmetry=a2u
              MO Center=  1.2D-08, -1.6D-08,  6.2D-11, r^2= 5.6D+00
   Bfn.  Coefficient  Atom+Function         Bfn.  Coefficient  Atom+Function  
  ----- ------------  ---------------      ----- ------------  ---------------
   204      0.235504  4 Br px               280     -0.235504  5 Br py         
   430     -0.235504  7 Br py               504      0.235504  8 Br px         
   129     -0.172401  3 Br px               130      0.172401  3 Br py         
   354     -0.172401  6 Br px               355      0.172401  6 Br py         
   201     -0.148358  4 Br px               277      0.148358  5 Br py         
 
 Vector   43  Occ=2.000000D+00  E=-6.346877D+00  Symmetry=eg
              MO Center=  4.3D-09,  6.3D-09,  2.7D-09, r^2= 5.6D+00
   Bfn.  Coefficient  Atom+Function         Bfn.  Coefficient  Atom+Function  
  ----- ------------  ---------------      ----- ------------  ---------------
   280      0.326982  5 Br py               430     -0.326982  7 Br py         
   204      0.218368  4 Br px               504     -0.218368  8 Br px         
   277     -0.205978  5 Br py               427      0.205978  7 Br py         
   283      0.200268  5 Br py               433     -0.200268  7 Br py         
   201     -0.137558  4 Br px               501      0.137558  8 Br px         
 
 Vector   44  Occ=2.000000D+00  E=-6.346877D+00  Symmetry=eg
              MO Center= -1.6D-08,  7.9D-09,  8.2D-11, r^2= 5.6D+00
   Bfn.  Coefficient  Atom+Function         Bfn.  Coefficient  Atom+Function  
  ----- ------------  ---------------      ----- ------------  ---------------
   204      0.251490  4 Br px               504     -0.251490  8 Br px         
   129      0.230489  3 Br px               130     -0.230493  3 Br py         
   354     -0.230489  6 Br px               355      0.230493  6 Br py         
   201     -0.158424  4 Br px               501      0.158424  8 Br px         
   207      0.154036  4 Br px               507     -0.154036  8 Br px         
 
 Vector   45  Occ=2.000000D+00  E=-6.332358D+00  Symmetry=a2u
              MO Center=  1.3D-09,  4.1D-10,  3.9D-10, r^2= 5.6D+00
   Bfn.  Coefficient  Atom+Function         Bfn.  Coefficient  Atom+Function  
  ----- ------------  ---------------      ----- ------------  ---------------
   131      0.244073  3 Br pz               206      0.244073  4 Br pz         
   281      0.244073  5 Br pz               356      0.244073  6 Br pz         
   431      0.244073  7 Br pz               506      0.244073  8 Br pz         
   128     -0.153674  3 Br pz               203     -0.153674  4 Br pz         
   278     -0.153674  5 Br pz               353     -0.153674  6 Br pz         
 
 Vector   46  Occ=2.000000D+00  E=-6.332358D+00  Symmetry=eu
              MO Center=  3.9D-16,  1.7D-16,  2.2D-16, r^2= 5.6D+00
   Bfn.  Coefficient  Atom+Function         Bfn.  Coefficient  Atom+Function  
  ----- ------------  ---------------      ----- ------------  ---------------
   131      0.338784  3 Br pz               356      0.338784  6 Br pz         
   206     -0.226608  4 Br pz               506     -0.226608  8 Br pz         
   128     -0.213309  3 Br pz               353     -0.213309  6 Br pz         
   134      0.207462  3 Br pz               359      0.207462  6 Br pz         
   203      0.142680  4 Br pz               503      0.142680  8 Br pz         
 
 Vector   47  Occ=2.000000D+00  E=-6.332358D+00  Symmetry=eu
              MO Center= -5.6D-17,  3.2D-16, -4.4D-16, r^2= 5.6D+00
   Bfn.  Coefficient  Atom+Function         Bfn.  Coefficient  Atom+Function  
  ----- ------------  ---------------      ----- ------------  ---------------
   281      0.326429  5 Br pz               431      0.326429  7 Br pz         
   206     -0.260362  4 Br pz               506     -0.260362  8 Br pz         
   278     -0.205530  5 Br pz               428     -0.205530  7 Br pz         
   284      0.199897  5 Br pz               434      0.199897  7 Br pz         
   203      0.163932  4 Br pz               503      0.163932  8 Br pz         
 
 Vector   48  Occ=2.000000D+00  E=-6.332358D+00  Symmetry=eg
              MO Center= -2.0D-10, -7.1D-10,  3.1D-16, r^2= 5.6D+00
   Bfn.  Coefficient  Atom+Function         Bfn.  Coefficient  Atom+Function  
  ----- ------------  ---------------      ----- ------------  ---------------
   281      0.345153  5 Br pz               431     -0.345153  7 Br pz         
   278     -0.217319  5 Br pz               428      0.217319  7 Br pz         
   284      0.211369  5 Br pz               434     -0.211369  7 Br pz         
   206     -0.175176  4 Br pz               506      0.175176  8 Br pz         
   131     -0.169977  3 Br pz               356      0.169977  6 Br pz         
 
 Vector   49  Occ=2.000000D+00  E=-6.332358D+00  Symmetry=eg
              MO Center= -1.1D-09,  3.0D-10,  3.3D-16, r^2= 5.6D+00
   Bfn.  Coefficient  Atom+Function         Bfn.  Coefficient  Atom+Function  
  ----- ------------  ---------------      ----- ------------  ---------------
   131      0.300412  3 Br pz               356     -0.300412  6 Br pz         
   206     -0.297410  4 Br pz               506      0.297410  8 Br pz         
   128     -0.189149  3 Br pz               353      0.189149  6 Br pz         
   203      0.187259  4 Br pz               503     -0.187259  8 Br pz         
   134      0.183970  3 Br pz               359     -0.183970  6 Br pz         
 
 Vector   50  Occ=2.000000D+00  E=-6.332358D+00  Symmetry=a1g
              MO Center=  2.8D-17,  7.2D-16, -3.9D-10, r^2= 5.6D+00
   Bfn.  Coefficient  Atom+Function         Bfn.  Coefficient  Atom+Function  
  ----- ------------  ---------------      ----- ------------  ---------------
   131      0.244067  3 Br pz               206      0.244067  4 Br pz         
   281      0.244067  5 Br pz               356     -0.244067  6 Br pz         
   431     -0.244067  7 Br pz               506     -0.244067  8 Br pz         
   128     -0.153674  3 Br pz               203     -0.153674  4 Br pz         
   278     -0.153674  5 Br pz               353      0.153674  6 Br pz         
 
 Vector   51  Occ=2.000000D+00  E=-6.332149D+00  Symmetry=eu
              MO Center=  7.1D-10,  6.0D-10,  1.7D-10, r^2= 5.6D+00
   Bfn.  Coefficient  Atom+Function         Bfn.  Coefficient  Atom+Function  
  ----- ------------  ---------------      ----- ------------  ---------------
   279      0.337340  5 Br px               429      0.337340  7 Br px         
   205     -0.270919  4 Br py               505     -0.270919  8 Br py         
   276     -0.212398  5 Br px               426     -0.212398  7 Br px         
   282      0.206577  5 Br px               432      0.206577  7 Br px         
   202      0.170578  4 Br py               502      0.170578  8 Br py         
 
 Vector   52  Occ=2.000000D+00  E=-6.332149D+00  Symmetry=eu
              MO Center=  5.9D-09, -3.2D-09, -7.8D-09, r^2= 5.6D+00
   Bfn.  Coefficient  Atom+Function         Bfn.  Coefficient  Atom+Function  
  ----- ------------  ---------------      ----- ------------  ---------------
   129      0.257081  3 Br px               130      0.257072  3 Br py         
   354      0.257081  6 Br px               355      0.257072  6 Br py         
   205      0.233104  4 Br py               505      0.233104  8 Br py         
   126     -0.161865  3 Br px               127     -0.161859  3 Br py         
   351     -0.161865  6 Br px               352     -0.161859  6 Br py         
 
 Vector   53  Occ=2.000000D+00  E=-6.332149D+00  Symmetry=eg
              MO Center= -5.8D-09,  2.2D-09,  7.2D-09, r^2= 5.6D+00
   Bfn.  Coefficient  Atom+Function         Bfn.  Coefficient  Atom+Function  
  ----- ------------  ---------------      ----- ------------  ---------------
   279      0.320880  5 Br px               429     -0.320880  7 Br px         
   129      0.217219  3 Br px               130      0.217229  3 Br py         
   354     -0.217219  6 Br px               355     -0.217229  6 Br py         
   276     -0.202036  5 Br px               426      0.202036  7 Br px         
   282      0.196514  5 Br px               432     -0.196514  7 Br px         
 
 Vector   54  Occ=2.000000D+00  E=-6.332149D+00  Symmetry=eg
              MO Center=  3.1D-10,  7.7D-10,  4.0D-10, r^2= 5.6D+00
   Bfn.  Coefficient  Atom+Function         Bfn.  Coefficient  Atom+Function  
  ----- ------------  ---------------      ----- ------------  ---------------
   205      0.356580  4 Br py               505     -0.356580  8 Br py         
   202     -0.224514  4 Br py               502      0.224514  8 Br py         
   208      0.218376  4 Br py               508     -0.218376  8 Br py         
   279     -0.157380  5 Br px               429      0.157380  7 Br px         
   129      0.145834  3 Br px               130      0.145819  3 Br py         
 
 Vector   55  Occ=2.000000D+00  E=-6.332149D+00  Symmetry=a2g
              MO Center= -7.4D-10, -3.5D-10,  5.6D-17, r^2= 5.6D+00
   Bfn.  Coefficient  Atom+Function         Bfn.  Coefficient  Atom+Function  
  ----- ------------  ---------------      ----- ------------  ---------------
   205      0.252722  4 Br py               279      0.252722  5 Br px         
   429     -0.252722  7 Br px               505     -0.252722  8 Br py         
   129     -0.185005  3 Br px               130     -0.185005  3 Br py         
   354      0.185005  6 Br px               355      0.185005  6 Br py         
   202     -0.159119  4 Br py               276     -0.159119  5 Br px         
 
 Vector   56  Occ=2.000000D+00  E=-6.332149D+00  Symmetry=a1u
              MO Center= -3.3D-10, -6.4D-11,  0.0D+00, r^2= 5.6D+00
   Bfn.  Coefficient  Atom+Function         Bfn.  Coefficient  Atom+Function  
  ----- ------------  ---------------      ----- ------------  ---------------
   205      0.252717  4 Br py               279      0.252717  5 Br px         
   429      0.252717  7 Br px               505      0.252717  8 Br py         
   129     -0.185002  3 Br px               130     -0.185002  3 Br py         
   354     -0.185002  6 Br px               355     -0.185002  6 Br py         
   202     -0.159119  4 Br py               276     -0.159119  5 Br px         
 
 Vector   57  Occ=2.000000D+00  E=-2.512453D+00  Symmetry=a1g
              MO Center= -4.3D-09, -1.4D-09, -4.1D-08, r^2= 5.6D+00
   Bfn.  Coefficient  Atom+Function         Bfn.  Coefficient  Atom+Function  
  ----- ------------  ---------------      ----- ------------  ---------------
   147      0.262492  3 Br d -2             372      0.262492  6 Br d -2       
   226     -0.227325  4 Br d  2             301      0.227325  5 Br d  2       
   451      0.227325  7 Br d  2             526     -0.227325  8 Br d  2       
   225      0.197109  4 Br d  1             298      0.197109  5 Br d -1       
   448      0.197109  7 Br d -1             525      0.197109  8 Br d  1       
 
 Vector   58  Occ=2.000000D+00  E=-2.512450D+00  Symmetry=a2u
              MO Center= -4.5D-09, -1.2D-09,  4.1D-08, r^2= 5.6D+00
   Bfn.  Coefficient  Atom+Function         Bfn.  Coefficient  Atom+Function  
  ----- ------------  ---------------      ----- ------------  ---------------
   147      0.262642  3 Br d -2             372     -0.262642  6 Br d -2       
   226     -0.227454  4 Br d  2             301      0.227454  5 Br d  2       
   451     -0.227454  7 Br d  2             526      0.227454  8 Br d  2       
   225      0.196716  4 Br d  1             298      0.196716  5 Br d -1       
   448     -0.196716  7 Br d -1             525     -0.196716  8 Br d  1       
 
 Vector   59  Occ=2.000000D+00  E=-2.512413D+00  Symmetry=eu
              MO Center= -2.7D-08,  1.7D-08, -3.8D-08, r^2= 5.6D+00
   Bfn.  Coefficient  Atom+Function         Bfn.  Coefficient  Atom+Function  
  ----- ------------  ---------------      ----- ------------  ---------------
   301      0.303817  5 Br d  2             451     -0.303817  7 Br d  2       
   298      0.264682  5 Br d -1             448     -0.264682  7 Br d -1       
   226      0.242567  4 Br d  2             526     -0.242567  8 Br d  2       
   225     -0.211152  4 Br d  1             525      0.211152  8 Br d  1       
   297     -0.174956  5 Br d -2             447      0.174956  7 Br d -2       
 
 Vector   60  Occ=2.000000D+00  E=-2.512413D+00  Symmetry=eu
              MO Center= -9.0D-09, -2.7D-08, -3.0D-08, r^2= 5.6D+00
   Bfn.  Coefficient  Atom+Function         Bfn.  Coefficient  Atom+Function  
  ----- ------------  ---------------      ----- ------------  ---------------
   147      0.363861  3 Br d -2             372     -0.363861  6 Br d -2       
   226      0.210319  4 Br d  2             526     -0.210319  8 Br d  2       
   148     -0.201121  3 Br d -1             150     -0.201019  3 Br d  1       
   373      0.201121  6 Br d -1             375      0.201019  6 Br d  1       
   225     -0.183646  4 Br d  1             525      0.183646  8 Br d  1       
 
 Vector   61  Occ=2.000000D+00  E=-2.512409D+00  Symmetry=eg
              MO Center=  3.9D-08, -5.9D-09,  5.3D-08, r^2= 5.6D+00
   Bfn.  Coefficient  Atom+Function         Bfn.  Coefficient  Atom+Function  
  ----- ------------  ---------------      ----- ------------  ---------------
   226      0.284658  4 Br d  2             526      0.284658  8 Br d  2       
   301      0.271716  5 Br d  2             451      0.271716  7 Br d  2       
   225     -0.247759  4 Br d  1             525     -0.247759  8 Br d  1       
   298      0.236452  5 Br d -1             448      0.236452  7 Br d -1       
   222      0.163630  4 Br d -2             522      0.163630  8 Br d -2       
 
 Vector   62  Occ=2.000000D+00  E=-2.512409D+00  Symmetry=eg
              MO Center=  5.5D-09,  1.8D-08,  1.5D-08, r^2= 5.6D+00
   Bfn.  Coefficient  Atom+Function         Bfn.  Coefficient  Atom+Function  
  ----- ------------  ---------------      ----- ------------  ---------------
   147      0.370470  3 Br d -2             372      0.370470  6 Br d -2       
   148     -0.204585  3 Br d -1             150     -0.204613  3 Br d  1       
   373     -0.204585  6 Br d -1             375     -0.204613  6 Br d  1       
   301     -0.171102  5 Br d  2             451     -0.171102  7 Br d  2       
   149      0.152570  3 Br d  0             374      0.152570  6 Br d  0       
 
 Vector   63  Occ=2.000000D+00  E=-2.508876D+00  Symmetry=a1g
              MO Center= -9.0D-09, -1.7D-09, -2.2D-08, r^2= 5.6D+00
   Bfn.  Coefficient  Atom+Function         Bfn.  Coefficient  Atom+Function  
  ----- ------------  ---------------      ----- ------------  ---------------
   225      0.250337  4 Br d  1             298      0.250337  5 Br d -1       
   448      0.250337  7 Br d -1             525      0.250337  8 Br d  1       
   149     -0.203643  3 Br d  0             224     -0.203643  4 Br d  0       
   299     -0.203643  5 Br d  0             374     -0.203643  6 Br d  0       
   449     -0.203643  7 Br d  0             524     -0.203643  8 Br d  0       
 
 Vector   64  Occ=2.000000D+00  E=-2.508870D+00  Symmetry=a2u
              MO Center= -9.6D-09, -2.6D-09,  2.2D-08, r^2= 5.6D+00
   Bfn.  Coefficient  Atom+Function         Bfn.  Coefficient  Atom+Function  
  ----- ------------  ---------------      ----- ------------  ---------------
   225      0.250663  4 Br d  1             298      0.250663  5 Br d -1       
   448     -0.250663  7 Br d -1             525     -0.250663  8 Br d  1       
[...]
          Grid pruning is: on 
          Number of quadrature shells:   210
          Spatial weights used:  Erf1
 
          Convergence Information
          -----------------------
          Convergence aids based upon iterative change in 
          total energy or number of iterations. 
          Levelshifting, if invoked, occurs when the 
          HOMO/LUMO gap drops below (HL_TOL):  1.00D-02
          DIIS, if invoked, will attempt to extrapolate 
          using up to (NFOCK): 10 stored Fock matrices.

                    Damping( 0%)  Levelshifting(0.5)       DIIS
                  --------------- ------------------- ---------------
          dE  on:    start            ASAP                start   
          dE off:    2 iters         50 iters            50 iters 

 
      Screening Tolerance Information
      -------------------------------
          Density screening/tol_rho:  1.00D-10
          AO Gaussian exp screening on grid/accAOfunc:  14
          CD Gaussian exp screening on grid/accCDfunc:  20
          XC Gaussian exp screening on grid/accXCfunc:  20
          Schwarz screening/accCoul:  1.00D-08

 
 
                            NWChem DFT Gradient Module
                            --------------------------
 
 
                            vdw 4 DOI 10.1002/jcc.21759
 
 

  charge          =   0.00
  wavefunction    = closed shell

  Rotation of axis 
  Using symmetry


                         DFT ENERGY GRADIENTS

    atom               coordinates                        gradient
                 x          y          z           x          y          z
   1 C       0.000000  -0.000000   1.468464    0.000000   0.000000  -0.000050
   2 C      -0.000000   0.000000  -1.468464   -0.000000   0.000000   0.000050
   3 Br     -2.427507   2.427507   2.738525    0.000036  -0.000036  -0.000003
   4 Br      3.316036   0.888529   2.738525   -0.000049  -0.000013  -0.000003
   5 Br     -0.888529  -3.316036   2.738525    0.000013   0.000049  -0.000003
   6 Br      2.427507  -2.427507  -2.738525   -0.000036   0.000036   0.000003
   7 Br      0.888529   3.316036  -2.738525   -0.000013  -0.000049   0.000003
   8 Br     -3.316036  -0.888529  -2.738525    0.000049   0.000013   0.000003
 
                 ----------------------------------------
                 |  Time  |  1-e(secs)   |  2-e(secs)   |
                 ----------------------------------------
                 |  CPU   |       0.02   |       3.32   |
                 ----------------------------------------
                 |  WALL  |       0.02   |       3.32   |
                 ----------------------------------------
  no constraints, skipping     0.000000000000000     

  Step       Energy      Delta E   Gmax     Grms     Xrms     Xmax   Walltime
  ---- ---------------- -------- -------- -------- -------- -------- --------
@    4  -15528.35054864 -2.0D-06  0.00006  0.00003  0.00028  0.00040    217.0
                                     ok       ok       ok       ok  



                                Z-matrix (autoz)
                                -------- 

 Units are Angstrom for bonds and degrees for angles
 
      Type          Name      I     J     K     L     M      Value     Gradient
      ----------- --------  ----- ----- ----- ----- ----- ---------- ----------
    1 Stretch                  1     2                       1.55416   -0.00006
    2 Stretch                  1     3                       1.93701   -0.00005
    3 Stretch                  1     4                       1.93701   -0.00005
    4 Stretch                  1     5                       1.93701   -0.00005
    5 Stretch                  2     6                       1.93701   -0.00005
    6 Stretch                  2     7                       1.93701   -0.00005
    7 Stretch                  2     8                       1.93701   -0.00005
    8 Bend                     1     2     6               110.30221    0.00001
    9 Bend                     1     2     7               110.30221    0.00001
   10 Bend                     1     2     8               110.30221    0.00001
   11 Bend                     2     1     3               110.30221    0.00001
   12 Bend                     2     1     4               110.30221    0.00001
   13 Bend                     2     1     5               110.30221    0.00001
   14 Bend                     3     1     4               108.62760   -0.00001
   15 Bend                     3     1     5               108.62760   -0.00001
   16 Bend                     4     1     5               108.62760   -0.00001
   17 Bend                     6     2     7               108.62760   -0.00001
   18 Bend                     6     2     8               108.62760   -0.00001
   19 Bend                     7     2     8               108.62760   -0.00001
   20 Torsion                  3     1     2     6         180.00000   -0.00000
   21 Torsion                  3     1     2     7          60.00000   -0.00000
   22 Torsion                  3     1     2     8         -60.00000    0.00000
   23 Torsion                  4     1     2     6          60.00000   -0.00000
   24 Torsion                  4     1     2     7         -60.00000   -0.00000
   25 Torsion                  4     1     2     8         180.00000    0.00000
   26 Torsion                  5     1     2     6         -60.00000    0.00000
   27 Torsion                  5     1     2     7         180.00000   -0.00000
   28 Torsion                  5     1     2     8          60.00000    0.00000
 

      ----------------------
      Optimization converged
      ----------------------


  Step       Energy      Delta E   Gmax     Grms     Xrms     Xmax   Walltime
  ---- ---------------- -------- -------- -------- -------- -------- --------
@    4  -15528.35054864 -2.0D-06  0.00006  0.00003  0.00028  0.00040    217.0
                                     ok       ok       ok       ok  



                                Z-matrix (autoz)
                                -------- 

 Units are Angstrom for bonds and degrees for angles
 
      Type          Name      I     J     K     L     M      Value     Gradient
      ----------- --------  ----- ----- ----- ----- ----- ---------- ----------
    1 Stretch                  1     2                       1.55416   -0.00006
    2 Stretch                  1     3                       1.93701   -0.00005
    3 Stretch                  1     4                       1.93701   -0.00005
    4 Stretch                  1     5                       1.93701   -0.00005
    5 Stretch                  2     6                       1.93701   -0.00005
    6 Stretch                  2     7                       1.93701   -0.00005
    7 Stretch                  2     8                       1.93701   -0.00005
    8 Bend                     1     2     6               110.30221    0.00001
    9 Bend                     1     2     7               110.30221    0.00001
   10 Bend                     1     2     8               110.30221    0.00001
   11 Bend                     2     1     3               110.30221    0.00001
   12 Bend                     2     1     4               110.30221    0.00001
   13 Bend                     2     1     5               110.30221    0.00001
   14 Bend                     3     1     4               108.62760   -0.00001
   15 Bend                     3     1     5               108.62760   -0.00001
   16 Bend                     4     1     5               108.62760   -0.00001
   17 Bend                     6     2     7               108.62760   -0.00001
   18 Bend                     6     2     8               108.62760   -0.00001
   19 Bend                     7     2     8               108.62760   -0.00001
   20 Torsion                  3     1     2     6         180.00000   -0.00000
   21 Torsion                  3     1     2     7          60.00000   -0.00000
   22 Torsion                  3     1     2     8         -60.00000    0.00000
   23 Torsion                  4     1     2     6          60.00000   -0.00000
   24 Torsion                  4     1     2     7         -60.00000   -0.00000
   25 Torsion                  4     1     2     8         180.00000    0.00000
   26 Torsion                  5     1     2     6         -60.00000    0.00000
   27 Torsion                  5     1     2     7         180.00000   -0.00000
   28 Torsion                  5     1     2     8          60.00000    0.00000
 
 
 
                         Geometry "geometry" -> "geometry"
                         ---------------------------------
 
 Output coordinates in angstroms (scale by  1.889725989 to convert to a.u.)
 
  No.       Tag          Charge          X              Y              Z
 ---- ---------------- ---------- -------------- -------------- --------------
    1 C                    6.0000     0.00000000    -0.00000000     0.77707799
    2 C                    6.0000    -0.00000000     0.00000000    -0.77707799
    3 Br                  35.0000    -1.28458153     1.28458153     1.44916529
    4 Br                  35.0000     1.75477100     0.47018947     1.44916529
    5 Br                  35.0000    -0.47018947    -1.75477100     1.44916529
    6 Br                  35.0000     1.28458153    -1.28458153    -1.44916529
    7 Br                  35.0000     0.47018947     1.75477100    -1.44916529
    8 Br                  35.0000    -1.75477100    -0.47018947    -1.44916529
 
      Atomic Mass 
      ----------- 
 
      C                 12.000000
      Br                79.916500
 

 Effective nuclear repulsion energy (a.u.)    3380.1061477128

            Nuclear Dipole moment (a.u.) 
            ----------------------------
        X                 Y               Z
 ---------------- ---------------- ----------------
     0.0000000000     0.0000000000     0.0000000000
 
      Symmetry information
      --------------------
 
 Group name             D3d       
 Group number             33
 Group order              12
 No. of unique centers     2
 
      Symmetry unique atoms
 
     1    3
 
 
                Final and change from initial internal coordinates
                --------------------------------------------------
 


                                Z-matrix (autoz)
                                -------- 

 Units are Angstrom for bonds and degrees for angles
 
      Type          Name      I     J     K     L     M      Value       Change
      ----------- --------  ----- ----- ----- ----- ----- ---------- ----------
    1 Stretch                  1     2                       1.55416   -0.01139
    2 Stretch                  1     3                       1.93701   -0.02209
    3 Stretch                  1     4                       1.93701   -0.02209
    4 Stretch                  1     5                       1.93701   -0.02209
    5 Stretch                  2     6                       1.93701   -0.02209
    6 Stretch                  2     7                       1.93701   -0.02209
    7 Stretch                  2     8                       1.93701   -0.02209
    8 Bend                     1     2     6               110.30221    0.08829
    9 Bend                     1     2     7               110.30221    0.08829
   10 Bend                     1     2     8               110.30221    0.08829
   11 Bend                     2     1     3               110.30221    0.08829
   12 Bend                     2     1     4               110.30221    0.08829
   13 Bend                     2     1     5               110.30221    0.08829
   14 Bend                     3     1     4               108.62760   -0.09082
   15 Bend                     3     1     5               108.62760   -0.09082
   16 Bend                     4     1     5               108.62760   -0.09082
   17 Bend                     6     2     7               108.62760   -0.09082
   18 Bend                     6     2     8               108.62760   -0.09082
   19 Bend                     7     2     8               108.62760   -0.09082
   20 Torsion                  3     1     2     6         180.00000    0.00000
   21 Torsion                  3     1     2     7          60.00000    0.00000
   22 Torsion                  3     1     2     8         -60.00000    0.00000
   23 Torsion                  4     1     2     6          60.00000    0.00000
   24 Torsion                  4     1     2     7         -60.00000   -0.00000
   25 Torsion                  4     1     2     8         180.00000    0.00000
   26 Torsion                  5     1     2     6         -60.00000   -0.00000
   27 Torsion                  5     1     2     7         180.00000    0.00000
   28 Torsion                  5     1     2     8          60.00000    0.00000
 
 ==============================================================================
                                internuclear distances
 ------------------------------------------------------------------------------
       center one      |      center two      | atomic units |  angstroms
 ------------------------------------------------------------------------------
    2 C                |   1 C                |     2.93693  |     1.55416
    3 Br               |   1 C                |     3.66041  |     1.93701
    4 Br               |   1 C                |     3.66041  |     1.93701
    5 Br               |   1 C                |     3.66041  |     1.93701
    6 Br               |   2 C                |     3.66041  |     1.93701
    7 Br               |   2 C                |     3.66041  |     1.93701
    8 Br               |   2 C                |     3.66041  |     1.93701
 ------------------------------------------------------------------------------
                         number of included internuclear distances:          7
 ==============================================================================



 ==============================================================================
                                 internuclear angles
 ------------------------------------------------------------------------------
        center 1       |       center 2       |       center 3       |  degrees
 ------------------------------------------------------------------------------
    2 C                |   1 C                |   3 Br               |   110.30
    2 C                |   1 C                |   4 Br               |   110.30
    2 C                |   1 C                |   5 Br               |   110.30
    3 Br               |   1 C                |   4 Br               |   108.63
    3 Br               |   1 C                |   5 Br               |   108.63
    4 Br               |   1 C                |   5 Br               |   108.63
    1 C                |   2 C                |   6 Br               |   110.30
    1 C                |   2 C                |   7 Br               |   110.30
    1 C                |   2 C                |   8 Br               |   110.30
    6 Br               |   2 C                |   7 Br               |   108.63
    6 Br               |   2 C                |   8 Br               |   108.63
    7 Br               |   2 C                |   8 Br               |   108.63
 ------------------------------------------------------------------------------
                            number of included internuclear angles:         12
 ==============================================================================




 Task  times  cpu:      152.3s     wall:      153.7s
 
 
                                NWChem Input Module
                                -------------------
 
 
 Summary of allocated global arrays
-----------------------------------
  No active global arrays


MA_summarize_allocated_blocks: starting scan ...
MA_summarize_allocated_blocks: scan completed: 0 heap blocks, 0 stack blocks
MA usage statistics:

	allocation statistics:
					      heap	     stack
					      ----	     -----
	current number of blocks	         0	         0
	maximum number of blocks	        25	        58
	current total bytes		         0	         0
	maximum total bytes		    353544	  59289848
	maximum total K-bytes		       354	     59290
	maximum total M-bytes		         1	        60
 
 
                                     CITATION
                                     --------
                Please cite the following reference when publishing
                           results obtained with NWChem:
 
          E. Apra, E. J. Bylaska, W. A. de Jong, N. Govind, K. Kowalski,
       T. P. Straatsma, M. Valiev, H. J. J. van Dam, Y. Alexeev, J. Anchell,
       V. Anisimov, F. W. Aquino, R. Atta-Fynn, J. Autschbach, N. P. Bauman,
     J. C. Becca, D. E. Bernholdt, K. Bhaskaran-Nair, S. Bogatko, P. Borowski,
         J. Boschen, J. Brabec, A. Bruner, E. Cauet, Y. Chen, G. N. Chuev,
      C. J. Cramer, J. Daily, M. J. O. Deegan, T. H. Dunning Jr., M. Dupuis,
   K. G. Dyall, G. I. Fann, S. A. Fischer, A. Fonari, H. Fruchtl, L. Gagliardi,
      J. Garza, N. Gawande, S. Ghosh, K. Glaesemann, A. W. Gotz, J. Hammond,
       V. Helms, E. D. Hermes, K. Hirao, S. Hirata, M. Jacquelin, L. Jensen,
   B. G. Johnson, H. Jonsson, R. A. Kendall, M. Klemm, R. Kobayashi, V. Konkov,
      S. Krishnamoorthy, M. Krishnan, Z. Lin, R. D. Lins, R. J. Littlefield,
      A. J. Logsdail, K. Lopata, W. Ma, A. V. Marenich, J. Martin del Campo,
   D. Mejia-Rodriguez, J. E. Moore, J. M. Mullin, T. Nakajima, D. R. Nascimento,
    J. A. Nichols, P. J. Nichols, J. Nieplocha, A. Otero-de-la-Roza, B. Palmer,
    A. Panyala, T. Pirojsirikul, B. Peng, R. Peverati, J. Pittner, L. Pollack,
   R. M. Richard, P. Sadayappan, G. C. Schatz, W. A. Shelton, D. W. Silverstein,
   D. M. A. Smith, T. A. Soares, D. Song, M. Swart, H. L. Taylor, G. S. Thomas,
            V. Tipparaju, D. G. Truhlar, K. Tsemekhman, T. Van Voorhis,
      A. Vazquez-Mayagoitia, P. Verma, O. Villa, A. Vishnu, K. D. Vogiatzis,
        D. Wang, J. H. Weare, M. J. Williamson, T. L. Windus, K. Wolinski,
        A. T. Wong, Q. Wu, C. Yang, Q. Yu, M. Zacharias, Z. Zhang, Y. Zhao,
                                and R. J. Harrison
                        "NWChem: Past, present, and future
                         J. Chem. Phys. 152, 184102 (2020)
                               doi:10.1063/5.0004997
 
                                      AUTHORS
                                      -------
     E. Apra, E. J. Bylaska, N. Govind, K. Kowalski, M. Valiev, W. A. de Jong,
      T. P. Straatsma, H. J. J. van Dam, D. Wang, T. L. Windus, N. P. Bauman,
       A. Panyala, J. Hammond, J. Autschbach, K. Bhaskaran-Nair, J. Brabec,
    K. Lopata, S. A. Fischer, S. Krishnamoorthy, M. Jacquelin, W. Ma, M. Klemm,
       O. Villa, Y. Chen, V. Anisimov, F. Aquino, S. Hirata, M. T. Hackler,
           Eric Hermes, L. Jensen, J. E. Moore, J. C. Becca, V. Konjkov,
            D. Mejia-Rodriguez, T. Risthaus, M. Malagoli, A. Marenich,
   A. Otero-de-la-Roza, J. Mullin, P. Nichols, R. Peverati, J. Pittner, Y. Zhao,
        P.-D. Fan, A. Fonari, M. J. Williamson, R. J. Harrison, J. R. Rehr,
      M. Dupuis, D. Silverstein, D. M. A. Smith, J. Nieplocha, V. Tipparaju,
      M. Krishnan, B. E. Van Kuiken, A. Vazquez-Mayagoitia, M. Swart, Q. Wu,
   T. Van Voorhis, A. A. Auer, M. Nooijen, L. D. Crosby, E. Brown, G. Cisneros,
     G. I. Fann, H. Fruchtl, J. Garza, K. Hirao, R. A. Kendall, J. A. Nichols,
       K. Tsemekhman, K. Wolinski, J. Anchell, D. E. Bernholdt, P. Borowski,
       T. Clark, D. Clerc, H. Dachsel, M. J. O. Deegan, K. Dyall, D. Elwood,
      E. Glendening, M. Gutowski, A. C. Hess, J. Jaffe, B. G. Johnson, J. Ju,
        R. Kobayashi, R. Kutteh, Z. Lin, R. Littlefield, X. Long, B. Meng,
      T. Nakajima, S. Niu, L. Pollack, M. Rosing, K. Glaesemann, G. Sandrone,
      M. Stave, H. Taylor, G. Thomas, J. H. van Lenthe, A. T. Wong, Z. Zhang.

 Total times  cpu:      214.9s     wall:      217.0s
