 argument  1 = /Users/edo/builds/a4cGwnyq/0/edoapra/nwchem/QA/tests/pspw_becke98_h2o/pspw_becke98_h2o.nw



============================== echo of input deck ==============================
title "pspw_becke98 QA test for H2O"

echo

start pspw_becke98_H2O1


charge 0

geometry noautoz nocenter noautosym
O     0.00000   -0.05890    0.00000
H    -0.81100    0.46770    0.00000
H     0.81100    0.46770    0.00000
end

nwpw
  simulation_cell
    SC 20.0
  end
  odft
  mult 1
  xc new becke98
  lmbfgs
  cutoff 50.0
end

set nwpw:cif_filename H2O1

task pspw energy ignore

nwpw
  dft
end
task pspw energy

driver
   clear
   maxiter 30
end
task pspw optimize ignore


================================================================================


                                         
                                         


             Northwest Computational Chemistry Package (NWChem) 7.0.1
             --------------------------------------------------------


                    Environmental Molecular Sciences Laboratory
                       Pacific Northwest National Laboratory
                                Richland, WA 99352

                              Copyright (c) 1994-2020
                       Pacific Northwest National Laboratory
                            Battelle Memorial Institute

             NWChem is an open-source computational chemistry package
                        distributed under the terms of the
                      Educational Community License (ECL) 2.0
             A copy of the license is included with this distribution
                              in the LICENSE.TXT file

                                  ACKNOWLEDGMENT
                                  --------------

            This software and its documentation were developed at the
            EMSL at Pacific Northwest National Laboratory, a multiprogram
            national laboratory, operated for the U.S. Department of Energy
            by Battelle under Contract Number DE-AC05-76RL01830. Support
            for this work was provided by the Department of Energy Office
            of Biological and Environmental Research, Office of Basic
            Energy Sciences, and the Office of Advanced Scientific Computing.


           Job information
           ---------------

    hostname        = we27962
    program         = /Users/edo/builds/a4cGwnyq/0/edoapra/nwchem/bin/MACX64/nwchem
    date            = Wed Apr  7 15:28:37 2021

    compiled        = Wed_Apr_07_11:37:12_2021
    source          = /Users/edo/builds/a4cGwnyq/0/edoapra/nwchem
    nwchem branch   = 7.0.0
    nwchem revision = eca73c56
    ga revision     = 5.8.0
    use scalapack   = T
    input           = /Users/edo/builds/a4cGwnyq/0/edoapra/nwchem/QA/tests/pspw_becke98_h2o/pspw_becke98_h2o.nw
    prefix          = pspw_becke98_H2O1.
    data base       = ./pspw_becke98_H2O1.db
    status          = startup
    nproc           =        2
    time left       =     -1s



           Memory information
           ------------------

    heap     =   73074072 doubles =    557.5 Mbytes
    stack    =   73074073 doubles =    557.5 Mbytes
    global   =   41756615 doubles =    318.6 Mbytes (distinct from heap & stack)
    total    =  187904760 doubles =   1433.6 Mbytes
    verify   = yes
    hardfail = no 


           Directory information
           ---------------------

  0 permanent = .
  0 scratch   = .




                                NWChem Input Module
                                -------------------


                           pspw_becke98 QA test for H2O
                           ----------------------------

 Scaling coordinates for geometry "geometry" by  1.889725989
 (inverse scale =  0.529177249)



                             Geometry "geometry" -> ""
                             -------------------------

 Output coordinates in angstroms (scale by  1.889725989 to convert to a.u.)

  No.       Tag          Charge          X              Y              Z
 ---- ---------------- ---------- -------------- -------------- --------------
    1 O                    8.0000     0.00000000    -0.05890000     0.00000000
    2 H                    1.0000    -0.81100000     0.46770000     0.00000000
    3 H                    1.0000     0.81100000     0.46770000     0.00000000

      Atomic Mass 
      ----------- 

      O                 15.994910
      H                  1.007825


 Effective nuclear repulsion energy (a.u.)       9.0823094384

            Nuclear Dipole moment (a.u.) 
            ----------------------------
        X                 Y               Z
 ---------------- ---------------- ----------------
     0.0000000000     0.8772108039     0.0000000000


            XYZ format geometry
            -------------------
     3
 geometry
 O                     0.00000000    -0.05890000     0.00000000
 H                    -0.81100000     0.46770000     0.00000000
 H                     0.81100000     0.46770000     0.00000000

 ==============================================================================
                                internuclear distances
 ------------------------------------------------------------------------------
       center one      |      center two      | atomic units |  angstroms
 ------------------------------------------------------------------------------
    2 H                |   1 O                |     1.82731  |     0.96697
    3 H                |   1 O                |     1.82731  |     0.96697
 ------------------------------------------------------------------------------
                         number of included internuclear distances:          2
 ==============================================================================



 ==============================================================================
                                 internuclear angles
 ------------------------------------------------------------------------------
        center 1       |       center 2       |       center 3       |  degrees
 ------------------------------------------------------------------------------
    2 H                |   1 O                |   3 H                |   114.01
 ------------------------------------------------------------------------------
                            number of included internuclear angles:          1
 ==============================================================================



          ****************************************************
          *                                                  *
          *               NWPW PSPW Calculation              *
          *                                                  *
          * [ (Grassmann/Stiefel manifold implementation)  ] *
          *                                                  *
          *      [ NorthWest Chemistry implementation ]      *
          *                                                  *
          *            version #5.10   06/12/02              *
          *                                                  *
          *    This code was developed by Eric J. Bylaska,   *
          *    and was based upon algorithms and code        *
          *    developed by the group of Prof. John H. Weare *
          *                                                  *
          ****************************************************
     >>>  JOB STARTED       AT Wed Apr  7 15:28:37 2021  <<<
          ================ input data ========================
  library name resolved from: compiled reference
  NWCHEM_NWPW_LIBRARY set to: </Users/edo/builds/a4cGwnyq/0/edoapra/nwchem/src/nwpw/libraryps/>
 Generating 1d pseudopotential for O   

 Generated formatted_filename: ./O.vpp
  library name resolved from: compiled reference
  NWCHEM_NWPW_LIBRARY set to: </Users/edo/builds/a4cGwnyq/0/edoapra/nwchem/src/nwpw/libraryps/>
 Generating 1d pseudopotential for H   

 Generated formatted_filename: ./H.vpp
 random planewave guess, initial psi:pspw_becke98_H2O1.movecs                          
 -   spin, nalpha, nbeta:                    2                    4                    4

 input psi filename:./pspw_becke98_H2O1.movecs

 Warning - K.S. orbitals are not orthonormal. Applying Gram-Schmidt orthonormalization.
         - exact norm=0.800000E+01 norm=0.531127E+01 corrected norm=0.800000E+01 (error=0.268873E+01)


 number of processors used:         2
 processor grid           :   2 x   1
 parallel mapping         :2d hilbert
 parallel mapping         :  balanced
 number of threads        :         1
 parallel io              :       off

 options:
      boundary conditions  = periodic    (version3)
      electron spin        = unrestricted

      exchange correlation = 
      0.21984700  Hartree-Fock Exchange
      1.00000000  B98 (HL Schmider, AD Becke, J.Chem.Phys. 108, 9624 (1998) doi:10.1063/1.476438)

      - HFX relaxed
      - HFX alpha orbitals:    1    2    3    4
      - HFX beta orbitals :    5    6    7    8
      - HFX screened coulomb solver
      - HFX screening radius(pspw:HFX_screening_radius): 0.800E+01
      - HFX screening power (pspw:HFX_screening_power) : 0.800E+01
      - HFX screening type (pspw:HFX_screening_type)   : 0
      - HFX scaling parameter (pspw:HFX_parameter)     : 0.220E+00


 elements involved in the cluster:
      1: O   valence charge:  6.0000  lmax=  2
             comment    : Parameterized (Chem.Phys.Lett., vol 322, page 447) Hamman psp
             pseudpotential type            :   0
             highest angular component      :   2
             local potential used           :   2
             number of non-local projections:   4
             cutoff =   0.700   0.700   0.700

      2: H   valence charge:  1.0000  lmax=  1
             comment    : Parameterized (Chem.Phys.Lett., vol 322, page 447) Hamman psp
             pseudpotential type            :   0
             highest angular component      :   1
             local potential used           :   1
             number of non-local projections:   1
             cutoff =   0.800   0.800


 total charge:   0.000

 atomic composition:
     O   :    1     H   :    2

 number of electrons: spin up=     4 (   4 per task)  down=     4 (   4 per task) (Fourier space)
 number of orbitals : spin up=     4 (   4 per task)  down=     4 (   4 per task) (Fourier space)

 supercell:
      cell_name:  cell_default                                      
      lattice:    a1=<  20.000   0.000   0.000 >
                  a2=<   0.000  20.000   0.000 >
                  a3=<   0.000   0.000  20.000 >
      reciprocal: b1=<   0.314   0.000   0.000 >
                  b2=<   0.000   0.314   0.000 >
                  b3=<   0.000   0.000   0.314 >
      lattice:    a=      20.000 b=     20.000 c=      20.000
                  alpha=  90.000 beta=  90.000 gamma=  90.000
                  omega=      8000.0

      density cutoff= 25.000  fft= 48x 48x 48(    23917 waves    11959 per task)
      wavefnc cutoff= 12.500  fft= 48x 48x 48(     8440 waves     4220 per task)
      Ewald summation: cut radius=    6.37  and  1
                       Madelung Wigner-Seitz=    1.76011888 (alpha=    2.83729748 rs=12.40700982)

 technical parameters:
      time step=      5.80     fictitious mass=  400000.0
      tolerance=0.100E-06 (energy)   0.100E-06 (density)
      maximum iterations =      1000 (   10 inner    100 outer )





== Energy Calculation ==


          ============ Grassmann lmbfgs iteration ============
     >>>  ITERATION STARTED AT Wed Apr  7 15:28:38 2021  <<<
    iter.           Energy         DeltaE       DeltaRho 
    ------------------------------------------------------
     -  15 steepest descent iterations performed
      10   -0.1567239670E+02   -0.32134E+00    0.22791E+01
     -  10 steepest descent iterations performed
      20   -0.1660592526E+02   -0.63482E-02    0.34851E-01
      30   -0.1661580433E+02   -0.45152E-04    0.21639E-03
      40   -0.1661588123E+02   -0.53008E-06    0.70267E-06
      50   -0.1661588195E+02   -0.80859E-07    0.78659E-08
  *** tolerance ok. iteration terminated
     >>>  ITERATION ENDED   AT Wed Apr  7 15:29:24 2021  <<<


==  Summary Of Results  ==

 number of electrons: spin up=    4.00000  down=    4.00000 (real space)

 total     energy    :  -0.1661588195E+02 (   -0.55386E+01/ion)
 total orbital energy:  -0.4740699158E+01 (   -0.59259E+00/electron)
 hartree   energy    :   0.1602643220E+02 (    0.20033E+01/electron)
 exc-corr  energy    :  -0.3245100577E+01 (   -0.40564E+00/electron)
 HF exchange energy  :  -0.8365105212E+00 (   -0.10456E+00/electron)
 ion-ion   energy    :   0.2366648438E+01 (    0.78888E+00/ion)

 kinetic (planewave) :   0.1056836311E+02 (    0.13210E+01/electron)
 V_local (planewave) :  -0.4130036430E+02 (   -0.51625E+01/electron)
 V_nl    (planewave) :  -0.1953503023E+00 (   -0.24419E-01/electron)
 V_Coul  (planewave) :   0.3205286440E+02 (    0.40066E+01/electron)
 V_xc.   (planewave) :  -0.4193191019E+01 (   -0.52415E+00/electron)
 K.S. HFX energy     :  -0.1673021042E+01 (   -0.20913E+00/electron)
 Virial Coefficient  :  -0.1290269939E+01

 orbital energies:
    -0.3125178E+00 (  -8.504eV)    -0.3125161E+00 (  -8.504eV)
    -0.3875337E+00 ( -10.545eV)    -0.3875420E+00 ( -10.546eV)
    -0.5555710E+00 ( -15.118eV)    -0.5555702E+00 ( -15.118eV)
    -0.1114721E+01 ( -30.333eV)    -0.1114727E+01 ( -30.334eV)

 Total PSPW energy     :  -0.1661588195E+02


=== Spin Contamination ===

 <Sexact^2> =    0.0000000000000000     
 <S^2>      =    2.6678029918514312E-007



== Center of Charge ==

spin up     (    0.0001,    0.0711,    0.0000 )
spin down   (   -0.0000,    0.0711,   -0.0001 )
     total  (    0.0000,    0.0711,   -0.0000 )
ionic       (    0.0000,    0.1375,    0.0000 )


== Molecular Dipole wrt Center of Mass ==

mu   =  (   -0.0002,    0.5311,    0.0002 ) au
|mu| =     0.5311 au,       1.3499 Debye

 output psi filename:./pspw_becke98_H2O1.movecs

 Writing Crystallographic Information File:./H2O1.cif
   - cell not shifted (nwpw:cif_shift_cell .false.)


== Timing ==

cputime in seconds
  prologue    :   0.182129E+01
  main loop   :   0.451018E+02
  epilogue    :   0.497050E-01
  total       :   0.469728E+02
  cputime/step:   0.366681E+00       (     123 evalulations,      44 linesearches)


Time spent doing                        total          step       percent
  total time                 :   0.469738E+02  0.381901E+00       100.0 %
  i/o time                   :   0.151817E+01  0.123429E-01         3.2 %
  FFTs                       :   0.562459E+01  0.457284E-01        12.0 %
  dot products               :   0.243104E+00  0.197646E-02         0.5 %
  geodesic                   :   0.252129E+00  0.204983E-02         0.5 %
  ffm_dgemm                  :   0.533341E-01  0.433611E-03         0.1 %
  fmf_dgemm                  :   0.120804E+00  0.982150E-03         0.3 %
  mmm_dgemm                  :   0.258379E-02  0.210064E-04         0.0 %
  m_diagonalize              :   0.259097E-02  0.210648E-04         0.0 %
  exchange correlation       :   0.235347E+02  0.191339E+00        50.1 %
  local pseudopotentials     :   0.584000E-03  0.474797E-05         0.0 %
  non-local pseudopotentials :   0.143216E+00  0.116436E-02         0.3 %
  hartree potentials         :   0.396555E+00  0.322403E-02         0.8 %
  ion-ion interaction        :   0.272200E-02  0.221301E-04         0.0 %
  structure factors          :   0.230906E-01  0.187728E-03         0.0 %
  phase factors              :   0.140000E-04  0.113821E-06         0.0 %
  masking and packing        :   0.230472E+01  0.187376E-01         4.9 %
  queue fft                  :   0.168199E+02  0.136748E+00        35.8 %
  queue fft (serial)         :   0.786209E+01  0.639194E-01        16.7 %
  queue fft (message passing):   0.842629E+01  0.685064E-01        17.9 %
  HFX potential              :   0.153656E+02  0.124923E+00        32.7 %
  non-local psp FFM          :   0.856161E-01  0.696066E-03         0.2 %
  non-local psp FMF          :   0.283670E-01  0.230626E-03         0.1 %
  non-local psp FFM A        :   0.129987E-01  0.105681E-03         0.0 %
  non-local psp FFM B        :   0.508450E-01  0.413374E-03         0.1 %

== HFX Counters ==
  HFX Evalulations         =   123
  Lin ACE HFX Evalulations =     0


     >>>  JOB COMPLETED     AT Wed Apr  7 15:29:24 2021  <<<
          ****************************************************
          *                                                  *
          *               NWPW PSPW Calculation              *
          *                                                  *
          * [ (Grassmann/Stiefel manifold implementation)  ] *
          *                                                  *
          *      [ NorthWest Chemistry implementation ]      *
          *                                                  *
          *            version #5.10   06/12/02              *
          *                                                  *
          *    This code was developed by Eric J. Bylaska,   *
          *    and was based upon algorithms and code        *
          *    developed by the group of Prof. John H. Weare *
          *                                                  *
          ****************************************************
     >>>  JOB STARTED       AT Wed Apr  7 15:29:24 2021  <<<
          ================ input data ========================
 pseudopotential is not correctly formatted:O.vpp                                             

 Generated formatted_filename: ./O.vpp
 pseudopotential is not correctly formatted:H.vpp                                             

 Generated formatted_filename: ./H.vpp
 Error reading psi - bad grid
 nfft :                   48                   48                   48
 ngrid:                   70                   70                   70
 Error reading psi - bad grid
 nfft :                   48                   48                   48
 ngrid:                   70                   70                   70
 Error reading psi - bad grid

 Grid is being converted:
 ------------------------

 To turn off automatic grid conversion:

 set nwpw:psi_nogrid .false.

 old_filename: pspw_becke98_H2O1.movecs                          
 new_filename: pspw_becke98_H2O1.movecs                          
 converting  :  48x 48x 48 -->  70x 70x 70
converting .... psi:    1 spin: 1
converting .... psi:    2 spin: 1
converting .... psi:    3 spin: 1
converting .... psi:    4 spin: 1
converting .... psi:    1 spin: 2
converting .... psi:    2 spin: 2
converting .... psi:    3 spin: 2
converting .... psi:    4 spin: 2

 input psi filename:./pspw_becke98_H2O1.movecs

 number of processors used:         2
 processor grid           :   2 x   1
 parallel mapping         :2d hilbert
 parallel mapping         :  balanced
 number of threads        :         1
 parallel io              :       off

 options:
      boundary conditions  = periodic    (version3)
      electron spin        = unrestricted

      exchange correlation = 
      0.21984700  Hartree-Fock Exchange
      1.00000000  B98 (HL Schmider, AD Becke, J.Chem.Phys. 108, 9624 (1998) doi:10.1063/1.476438)

      - HFX relaxed
      - HFX alpha orbitals:    1    2    3    4
      - HFX beta orbitals :    5    6    7    8
      - HFX screened coulomb solver
      - HFX screening radius(pspw:HFX_screening_radius): 0.800E+01
      - HFX screening power (pspw:HFX_screening_power) : 0.800E+01
      - HFX screening type (pspw:HFX_screening_type)   : 0
      - HFX scaling parameter (pspw:HFX_parameter)     : 0.220E+00


 elements involved in the cluster:
      1: O   valence charge:  6.0000  lmax=  2
             comment    : Parameterized (Chem.Phys.Lett., vol 322, page 447) Hamman psp
             pseudpotential type            :   0
             highest angular component      :   2
             local potential used           :   2
             number of non-local projections:   4
             cutoff =   0.700   0.700   0.700

      2: H   valence charge:  1.0000  lmax=  1
             comment    : Parameterized (Chem.Phys.Lett., vol 322, page 447) Hamman psp
             pseudpotential type            :   0
             highest angular component      :   1
             local potential used           :   1
             number of non-local projections:   1
             cutoff =   0.800   0.800


 total charge:   0.000

 atomic composition:
     O   :    1     H   :    2

 number of electrons: spin up=     4 (   4 per task)  down=     4 (   4 per task) (Fourier space)
 number of orbitals : spin up=     4 (   4 per task)  down=     4 (   4 per task) (Fourier space)

 supercell:
      cell_name:  cell_default                                      
      lattice:    a1=<  20.000   0.000   0.000 >
                  a2=<   0.000  20.000   0.000 >
                  a3=<   0.000   0.000  20.000 >
      reciprocal: b1=<   0.314   0.000   0.000 >
                  b2=<   0.000   0.314   0.000 >
                  b3=<   0.000   0.000   0.314 >
      lattice:    a=      20.000 b=     20.000 c=      20.000
                  alpha=  90.000 beta=  90.000 gamma=  90.000
                  omega=      8000.0

      density cutoff= 50.000  fft= 70x 70x 70(    67522 waves    33761 per task)
      wavefnc cutoff= 25.000  fft= 70x 70x 70(    23917 waves    11959 per task)
      Ewald summation: cut radius=    6.37  and  1
                       Madelung Wigner-Seitz=    1.76011888 (alpha=    2.83729748 rs=12.40700982)

 technical parameters:
      time step=      5.80     fictitious mass=  400000.0
      tolerance=0.100E-06 (energy)   0.100E-06 (density)
      maximum iterations =      1000 (   10 inner    100 outer )





== Energy Calculation ==


          ============ Grassmann lmbfgs iteration ============
     >>>  ITERATION STARTED AT Wed Apr  7 15:29:30 2021  <<<
    iter.           Energy         DeltaE       DeltaRho 
    ------------------------------------------------------
      10   -0.1718558694E+02   -0.19905E-03    0.70390E-01
      20   -0.1718600177E+02   -0.37838E-05    0.30151E-04
      30   -0.1718600853E+02   -0.76633E-07    0.60639E-07
  *** tolerance ok. iteration terminated
     >>>  ITERATION ENDED   AT Wed Apr  7 15:30:50 2021  <<<


==  Summary Of Results  ==

 number of electrons: spin up=    4.00000  down=    4.00000 (real space)

 total     energy    :  -0.1718600853E+02 (   -0.57287E+01/ion)
 total orbital energy:  -0.4543541865E+01 (   -0.56794E+00/electron)
 hartree   energy    :   0.1686014100E+02 (    0.21075E+01/electron)
 exc-corr  energy    :  -0.3372683658E+01 (   -0.42159E+00/electron)
 HF exchange energy  :  -0.8645567197E+00 (   -0.10807E+00/electron)
 ion-ion   energy    :   0.2366648438E+01 (    0.78888E+00/ion)

 kinetic (planewave) :   0.1226447017E+02 (    0.15331E+01/electron)
 V_local (planewave) :  -0.4326094068E+02 (   -0.54076E+01/electron)
 V_nl    (planewave) :  -0.1179087079E+01 (   -0.14739E+00/electron)
 V_Coul  (planewave) :   0.3372028200E+02 (    0.42150E+01/electron)
 V_xc.   (planewave) :  -0.4359152838E+01 (   -0.54489E+00/electron)
 K.S. HFX energy     :  -0.1729113439E+01 (   -0.21614E+00/electron)
 Virial Coefficient  :  -0.1229478191E+01

 orbital energies:
    -0.3234598E+00 (  -8.802eV)    -0.3234598E+00 (  -8.802eV)
    -0.3804290E+00 ( -10.352eV)    -0.3804290E+00 ( -10.352eV)
    -0.5529378E+00 ( -15.046eV)    -0.5529378E+00 ( -15.046eV)
    -0.1014944E+01 ( -27.618eV)    -0.1014944E+01 ( -27.618eV)

 Total PSPW energy     :  -0.1718600853E+02


=== Spin Contamination ===

 <Sexact^2> =    0.0000000000000000     
 <S^2>      =    6.0627014519809563E-010



== Center of Charge ==

spin up     (   -0.0000,    0.0524,    0.0000 )
spin down   (    0.0000,    0.0524,   -0.0000 )
     total  (   -0.0000,    0.0524,   -0.0000 )
ionic       (    0.0000,    0.1375,    0.0000 )


== Molecular Dipole wrt Center of Mass ==

mu   =  (    0.0000,    0.6804,    0.0000 ) au
|mu| =     0.6804 au,       1.7293 Debye

 output psi filename:./pspw_becke98_H2O1.movecs

 Writing Crystallographic Information File:./H2O1.cif
   - cell not shifted (nwpw:cif_shift_cell .false.)


== Timing ==

cputime in seconds
  prologue    :   0.623710E+01
  main loop   :   0.798360E+02
  epilogue    :   0.143591E+00
  total       :   0.862166E+02
  cputime/step:   0.124744E+01       (      64 evalulations,      29 linesearches)


Time spent doing                        total          step       percent
  total time                 :   0.862173E+02  0.134715E+01       100.0 %
  i/o time                   :   0.354363E+01  0.553693E-01         4.1 %
  FFTs                       :   0.121754E+02  0.190241E+00        14.1 %
  dot products               :   0.325667E+00  0.508854E-02         0.4 %
  geodesic                   :   0.409741E+00  0.640220E-02         0.5 %
  ffm_dgemm                  :   0.645941E-01  0.100928E-02         0.1 %
  fmf_dgemm                  :   0.263924E+00  0.412381E-02         0.3 %
  mmm_dgemm                  :   0.179700E-02  0.280781E-04         0.0 %
  m_diagonalize              :   0.176198E-02  0.275310E-04         0.0 %
  exchange correlation       :   0.378268E+02  0.591043E+00        43.9 %
  local pseudopotentials     :   0.225400E-02  0.352188E-04         0.0 %
  non-local pseudopotentials :   0.220594E+00  0.344678E-02         0.3 %
  hartree potentials         :   0.602147E+00  0.940855E-02         0.7 %
  ion-ion interaction        :   0.459700E-02  0.718281E-04         0.0 %
  structure factors          :   0.334998E-01  0.523435E-03         0.0 %
  phase factors              :   0.130000E-04  0.203125E-06         0.0 %
  masking and packing        :   0.363428E+01  0.567856E-01         4.2 %
  queue fft                  :   0.333148E+02  0.520545E+00        38.6 %
  queue fft (serial)         :   0.172955E+02  0.270241E+00        20.1 %
  queue fft (message passing):   0.150575E+02  0.235274E+00        17.5 %
  HFX potential              :   0.298297E+02  0.466090E+00        34.6 %
  non-local psp FFM          :   0.115917E+00  0.181120E-02         0.1 %
  non-local psp FMF          :   0.654300E-01  0.102234E-02         0.1 %
  non-local psp FFM A        :   0.210819E-01  0.329404E-03         0.0 %
  non-local psp FFM B        :   0.722440E-01  0.112881E-02         0.1 %

== HFX Counters ==
  HFX Evalulations         =    64
  Lin ACE HFX Evalulations =     0


     >>>  JOB COMPLETED     AT Wed Apr  7 15:30:50 2021  <<<
          ****************************************************
          *                                                  *
          *               NWPW PSPW Calculation              *
          *                                                  *
          * [ (Grassmann/Stiefel manifold implementation)  ] *
          *                                                  *
          *      [ NorthWest Chemistry implementation ]      *
          *                                                  *
          *            version #5.10   06/12/02              *
          *                                                  *
          *    This code was developed by Eric J. Bylaska,   *
          *    and was based upon algorithms and code        *
          *    developed by the group of Prof. John H. Weare *
          *                                                  *
          ****************************************************
     >>>  JOB STARTED       AT Wed Apr  7 15:30:50 2021  <<<
          ================ input data ========================
 pseudopotential is not correctly formatted:O.vpp                                             

 Generated formatted_filename: ./O.vpp
 pseudopotential is not correctly formatted:H.vpp                                             

 Generated formatted_filename: ./H.vpp
 Error reading psi - bad grid
 nfft :                   70                   70                   70
 ngrid:                   80                   80                   80
 Error reading psi - bad grid
 nfft :                   70                   70                   70
 ngrid:                   80                   80                   80
 Error reading psi - bad grid

 Grid is being converted:
 ------------------------

 To turn off automatic grid conversion:

 set nwpw:psi_nogrid .false.

 old_filename: pspw_becke98_H2O1.movecs                          
 new_filename: pspw_becke98_H2O1.movecs                          
 converting  :  70x 70x 70 -->  80x 80x 80
converting .... psi:    1 spin: 1
converting .... psi:    2 spin: 1
converting .... psi:    3 spin: 1
converting .... psi:    4 spin: 1
converting .... psi:    1 spin: 2
converting .... psi:    2 spin: 2
converting .... psi:    3 spin: 2
converting .... psi:    4 spin: 2

 input psi filename:./pspw_becke98_H2O1.movecs

 number of processors used:         2
 processor grid           :   2 x   1
 parallel mapping         :2d hilbert
 parallel mapping         :  balanced
 number of threads        :         1
 parallel io              :       off

 options:
      boundary conditions  = periodic    (version3)
      electron spin        = unrestricted

      exchange correlation = 
      0.21984700  Hartree-Fock Exchange
      1.00000000  B98 (HL Schmider, AD Becke, J.Chem.Phys. 108, 9624 (1998) doi:10.1063/1.476438)

      - HFX relaxed
      - HFX alpha orbitals:    1    2    3    4
      - HFX beta orbitals :    5    6    7    8
      - HFX screened coulomb solver
      - HFX screening radius(pspw:HFX_screening_radius): 0.800E+01
      - HFX screening power (pspw:HFX_screening_power) : 0.800E+01
      - HFX screening type (pspw:HFX_screening_type)   : 0
      - HFX scaling parameter (pspw:HFX_parameter)     : 0.220E+00


 elements involved in the cluster:
      1: O   valence charge:  6.0000  lmax=  2
             comment    : Parameterized (Chem.Phys.Lett., vol 322, page 447) Hamman psp
             pseudpotential type            :   0
             highest angular component      :   2
             local potential used           :   2
             number of non-local projections:   4
             cutoff =   0.700   0.700   0.700

      2: H   valence charge:  1.0000  lmax=  1
             comment    : Parameterized (Chem.Phys.Lett., vol 322, page 447) Hamman psp
             pseudpotential type            :   0
             highest angular component      :   1
             local potential used           :   1
             number of non-local projections:   1
             cutoff =   0.800   0.800


 total charge:   0.000

 atomic composition:
     O   :    1     H   :    2

 number of electrons: spin up=     4 (   4 per task)  down=     4 (   4 per task) (Fourier space)
 number of orbitals : spin up=     4 (   4 per task)  down=     4 (   4 per task) (Fourier space)

 supercell:
      cell_name:  cell_default                                      
      lattice:    a1=<  20.000   0.000   0.000 >
                  a2=<   0.000  20.000   0.000 >
                  a3=<   0.000   0.000  20.000 >
      reciprocal: b1=<   0.314   0.000   0.000 >
                  b2=<   0.000   0.314   0.000 >
                  b3=<   0.000   0.000   0.314 >
      lattice:    a=      20.000 b=     20.000 c=      20.000
                  alpha=  90.000 beta=  90.000 gamma=  90.000
                  omega=      8000.0

      density cutoff= 75.000  fft= 80x 80x 80(   124025 waves    62013 per task)
      wavefnc cutoff= 37.500  fft= 80x 80x 80(    43828 waves    21914 per task)
      Ewald summation: cut radius=    6.37  and  1
                       Madelung Wigner-Seitz=    1.76011888 (alpha=    2.83729748 rs=12.40700982)

 technical parameters:
      time step=      5.80     fictitious mass=  400000.0
      tolerance=0.100E-06 (energy)   0.100E-06 (density)
      maximum iterations =      1000 (   10 inner    100 outer )





== Energy Calculation ==


          ============ Grassmann lmbfgs iteration ============
     >>>  ITERATION STARTED AT Wed Apr  7 15:31:03 2021  <<<
    iter.           Energy         DeltaE       DeltaRho 
    ------------------------------------------------------
      10   -0.1719986334E+02   -0.14966E-05    0.25737E-03
      20   -0.1719986643E+02   -0.47201E-07    0.17173E-06
      30   -0.1719986646E+02   -0.34819E-07    0.19039E-09
  *** tolerance ok. iteration terminated
     >>>  ITERATION ENDED   AT Wed Apr  7 15:32:30 2021  <<<


==  Summary Of Results  ==

 number of electrons: spin up=    4.00000  down=    4.00000 (real space)

 total     energy    :  -0.1719986646E+02 (   -0.57333E+01/ion)
 total orbital energy:  -0.4535314463E+01 (   -0.56691E+00/electron)
 hartree   energy    :   0.1688375872E+02 (    0.21105E+01/electron)
 exc-corr  energy    :  -0.3375598783E+01 (   -0.42195E+00/electron)
 HF exchange energy  :  -0.8653524671E+00 (   -0.10817E+00/electron)
 ion-ion   energy    :   0.2366648438E+01 (    0.78888E+00/ion)

 kinetic (planewave) :   0.1231433034E+02 (    0.15393E+01/electron)
 V_local (planewave) :  -0.4330891469E+02 (   -0.54136E+01/electron)
 V_nl    (planewave) :  -0.1214738014E+01 (   -0.15184E+00/electron)
 V_Coul  (planewave) :   0.3376751744E+02 (    0.42209E+01/electron)
 V_xc.   (planewave) :  -0.4362804599E+01 (   -0.54535E+00/electron)
 K.S. HFX energy     :  -0.1730704934E+01 (   -0.21634E+00/electron)
 Virial Coefficient  :  -0.1227751689E+01

 orbital energies:
    -0.3230247E+00 (  -8.790eV)    -0.3230247E+00 (  -8.790eV)
    -0.3806915E+00 ( -10.359eV)    -0.3806915E+00 ( -10.359eV)
    -0.5516042E+00 ( -15.010eV)    -0.5516042E+00 ( -15.010eV)
    -0.1012337E+01 ( -27.547eV)    -0.1012337E+01 ( -27.547eV)

 Total PSPW energy     :  -0.1719986646E+02


=== Spin Contamination ===

 <Sexact^2> =    0.0000000000000000     
 <S^2>      =    4.2590819759880105E-011



== Center of Charge ==

spin up     (   -0.0000,    0.0521,    0.0000 )
spin down   (    0.0000,    0.0521,   -0.0000 )
     total  (    0.0000,    0.0521,   -0.0000 )
ionic       (    0.0000,    0.1375,    0.0000 )


== Molecular Dipole wrt Center of Mass ==

mu   =  (   -0.0000,    0.6830,    0.0000 ) au
|mu| =     0.6830 au,       1.7358 Debye

 output psi filename:./pspw_becke98_H2O1.movecs

 Writing Crystallographic Information File:./H2O1.cif
   - cell not shifted (nwpw:cif_shift_cell .false.)


== Timing ==

cputime in seconds
  prologue    :   0.131959E+02
  main loop   :   0.870830E+02
  epilogue    :   0.163216E+00
  total       :   0.100442E+03
  cputime/step:   0.177720E+01       (      49 evalulations,      21 linesearches)


Time spent doing                        total          step       percent
  total time                 :   0.100443E+03  0.204985E+01       100.0 %
  i/o time                   :   0.916747E+01  0.187091E+00         9.1 %
  FFTs                       :   0.114187E+02  0.233035E+00        11.4 %
  dot products               :   0.401212E+00  0.818800E-02         0.4 %
  geodesic                   :   0.521957E+00  0.106522E-01         0.5 %
  ffm_dgemm                  :   0.824570E-01  0.168280E-02         0.1 %
  fmf_dgemm                  :   0.385596E+00  0.786930E-02         0.4 %
  mmm_dgemm                  :   0.141200E-02  0.288163E-04         0.0 %
  m_diagonalize              :   0.124199E-02  0.253468E-04         0.0 %
  exchange correlation       :   0.417479E+02  0.851997E+00        41.6 %
  local pseudopotentials     :   0.622400E-02  0.127020E-03         0.0 %
  non-local pseudopotentials :   0.324145E+00  0.661520E-02         0.3 %
  hartree potentials         :   0.914135E+00  0.186558E-01         0.9 %
  ion-ion interaction        :   0.850400E-02  0.173551E-03         0.0 %
  structure factors          :   0.514779E-01  0.105057E-02         0.1 %
  phase factors              :   0.170000E-04  0.346939E-06         0.0 %
  masking and packing        :   0.503220E+01  0.102698E+00         5.0 %
  queue fft                  :   0.350781E+02  0.715879E+00        34.9 %
  queue fft (serial)         :   0.144619E+02  0.295142E+00        14.4 %
  queue fft (message passing):   0.193965E+02  0.395846E+00        19.3 %
  HFX potential              :   0.322607E+02  0.658382E+00        32.1 %
  non-local psp FFM          :   0.158150E+00  0.322755E-02         0.2 %
  non-local psp FMF          :   0.107866E+00  0.220135E-02         0.1 %
  non-local psp FFM A        :   0.280699E-01  0.572855E-03         0.0 %
  non-local psp FFM B        :   0.101449E+00  0.207039E-02         0.1 %

== HFX Counters ==
  HFX Evalulations         =    49
  Lin ACE HFX Evalulations =     0


     >>>  JOB COMPLETED     AT Wed Apr  7 15:32:30 2021  <<<
          ****************************************************
          *                                                  *
          *               NWPW PSPW Calculation              *
          *                                                  *
          * [ (Grassmann/Stiefel manifold implementation)  ] *
          *                                                  *
          *      [ NorthWest Chemistry implementation ]      *
          *                                                  *
          *            version #5.10   06/12/02              *
          *                                                  *
          *    This code was developed by Eric J. Bylaska,   *
          *    and was based upon algorithms and code        *
          *    developed by the group of Prof. John H. Weare *
          *                                                  *
          ****************************************************
     >>>  JOB STARTED       AT Wed Apr  7 15:32:30 2021  <<<
          ================ input data ========================
 pseudopotential is not correctly formatted:O.vpp                                             

 Generated formatted_filename: ./O.vpp
 pseudopotential is not correctly formatted:H.vpp                                             

 Generated formatted_filename: ./H.vpp
 Error reading psi - bad grid
 nfft :                   80                   80                   80
 ngrid:                   96                   96                   96
 Error reading psi - bad grid
 nfft :                   80                   80                   80
 ngrid:                   96                   96                   96
 Error reading psi - bad grid

 Grid is being converted:
 ------------------------

 To turn off automatic grid conversion:

 set nwpw:psi_nogrid .false.

 old_filename: pspw_becke98_H2O1.movecs                          
 new_filename: pspw_becke98_H2O1.movecs                          
 converting  :  80x 80x 80 -->  96x 96x 96
converting .... psi:    1 spin: 1
converting .... psi:    2 spin: 1
converting .... psi:    3 spin: 1
converting .... psi:    4 spin: 1
converting .... psi:    1 spin: 2
converting .... psi:    2 spin: 2
converting .... psi:    3 spin: 2
converting .... psi:    4 spin: 2

 input psi filename:./pspw_becke98_H2O1.movecs

 number of processors used:         2
 processor grid           :   2 x   1
 parallel mapping         :2d hilbert
 parallel mapping         :  balanced
 number of threads        :         1
 parallel io              :       off

 options:
      boundary conditions  = periodic    (version3)
      electron spin        = unrestricted

      exchange correlation = 
      0.21984700  Hartree-Fock Exchange
      1.00000000  B98 (HL Schmider, AD Becke, J.Chem.Phys. 108, 9624 (1998) doi:10.1063/1.476438)

      - HFX relaxed
      - HFX alpha orbitals:    1    2    3    4
      - HFX beta orbitals :    5    6    7    8
      - HFX screened coulomb solver
      - HFX screening radius(pspw:HFX_screening_radius): 0.800E+01
      - HFX screening power (pspw:HFX_screening_power) : 0.800E+01
      - HFX screening type (pspw:HFX_screening_type)   : 0
      - HFX scaling parameter (pspw:HFX_parameter)     : 0.220E+00


 elements involved in the cluster:
      1: O   valence charge:  6.0000  lmax=  2
             comment    : Parameterized (Chem.Phys.Lett., vol 322, page 447) Hamman psp
             pseudpotential type            :   0
             highest angular component      :   2
             local potential used           :   2
             number of non-local projections:   4
             cutoff =   0.700   0.700   0.700

      2: H   valence charge:  1.0000  lmax=  1
             comment    : Parameterized (Chem.Phys.Lett., vol 322, page 447) Hamman psp
             pseudpotential type            :   0
             highest angular component      :   1
             local potential used           :   1
             number of non-local projections:   1
             cutoff =   0.800   0.800


 total charge:   0.000

 atomic composition:
     O   :    1     H   :    2

 number of electrons: spin up=     4 (   4 per task)  down=     4 (   4 per task) (Fourier space)
 number of orbitals : spin up=     4 (   4 per task)  down=     4 (   4 per task) (Fourier space)

 supercell:
      cell_name:  cell_default                                      
      lattice:    a1=<  20.000   0.000   0.000 >
                  a2=<   0.000  20.000   0.000 >
                  a3=<   0.000   0.000  20.000 >
      reciprocal: b1=<   0.314   0.000   0.000 >
                  b2=<   0.000   0.314   0.000 >
                  b3=<   0.000   0.000   0.314 >
      lattice:    a=      20.000 b=     20.000 c=      20.000
                  alpha=  90.000 beta=  90.000 gamma=  90.000
                  omega=      8000.0

      density cutoff=100.000  fft= 96x 96x 96(   191162 waves    95581 per task)
      wavefnc cutoff= 50.000  fft= 96x 96x 96(    67522 waves    33761 per task)
      Ewald summation: cut radius=    6.37  and  1
                       Madelung Wigner-Seitz=    1.76011888 (alpha=    2.83729748 rs=12.40700982)

 technical parameters:
      time step=      5.80     fictitious mass=  400000.0
      tolerance=0.100E-06 (energy)   0.100E-06 (density)
      maximum iterations =      1000 (   10 inner    100 outer )





== Energy Calculation ==


          ============ Grassmann lmbfgs iteration ============
     >>>  ITERATION STARTED AT Wed Apr  7 15:32:42 2021  <<<
    iter.           Energy         DeltaE       DeltaRho 
    ------------------------------------------------------
      10   -0.1721258822E+02   -0.45795E-06    0.30299E-03
      20   -0.1721258912E+02   -0.79361E-07    0.52921E-07
  *** tolerance ok. iteration terminated
     >>>  ITERATION ENDED   AT Wed Apr  7 15:34:35 2021  <<<


==  Summary Of Results  ==

 number of electrons: spin up=    4.00000  down=    4.00000 (real space)

 total     energy    :  -0.1721258912E+02 (   -0.57375E+01/ion)
 total orbital energy:  -0.4533245951E+01 (   -0.56666E+00/electron)
 hartree   energy    :   0.1689991354E+02 (    0.21125E+01/electron)
 exc-corr  energy    :  -0.3380525177E+01 (   -0.42257E+00/electron)
 HF exchange energy  :  -0.8660664593E+00 (   -0.10826E+00/electron)
 ion-ion   energy    :   0.2366648438E+01 (    0.78888E+00/ion)

 kinetic (planewave) :   0.1235202002E+02 (    0.15440E+01/electron)
 V_local (planewave) :  -0.4334739541E+02 (   -0.54184E+01/electron)
 V_nl    (planewave) :  -0.1237184068E+01 (   -0.15465E+00/electron)
 V_Coul  (planewave) :   0.3379982708E+02 (    0.42250E+01/electron)
 V_xc.   (planewave) :  -0.4368380650E+01 (   -0.54605E+00/electron)
 K.S. HFX energy     :  -0.1732132919E+01 (   -0.21652E+00/electron)
 Virial Coefficient  :  -0.1226773680E+01

 orbital energies:
    -0.3240460E+00 (  -8.818eV)    -0.3240460E+00 (  -8.818eV)
    -0.3801664E+00 ( -10.345eV)    -0.3801664E+00 ( -10.345eV)
    -0.5521634E+00 ( -15.025eV)    -0.5521634E+00 ( -15.025eV)
    -0.1010247E+01 ( -27.490eV)    -0.1010247E+01 ( -27.490eV)

 Total PSPW energy     :  -0.1721258912E+02


=== Spin Contamination ===

 <Sexact^2> =    0.0000000000000000     
 <S^2>      =    1.4390266755981429E-011



== Center of Charge ==

spin up     (   -0.0000,    0.0518,    0.0000 )
spin down   (    0.0000,    0.0518,   -0.0000 )
     total  (    0.0000,    0.0518,   -0.0000 )
ionic       (    0.0000,    0.1375,    0.0000 )


== Molecular Dipole wrt Center of Mass ==

mu   =  (   -0.0000,    0.6856,    0.0000 ) au
|mu| =     0.6856 au,       1.7425 Debye

 output psi filename:./pspw_becke98_H2O1.movecs

 Writing Crystallographic Information File:./H2O1.cif
   - cell not shifted (nwpw:cif_shift_cell .false.)


== Timing ==

cputime in seconds
  prologue    :   0.119719E+02
  main loop   :   0.112903E+03
  epilogue    :   0.301350E+00
  total       :   0.125177E+03
  cputime/step:   0.313620E+01       (      36 evalulations,      15 linesearches)


Time spent doing                        total          step       percent
  total time                 :   0.125177E+03  0.347714E+01       100.0 %
  i/o time                   :   0.891041E+01  0.247511E+00         7.1 %
  FFTs                       :   0.146157E+02  0.405992E+00        11.7 %
  dot products               :   0.443659E+00  0.123239E-01         0.4 %
  geodesic                   :   0.587766E+00  0.163268E-01         0.5 %
  ffm_dgemm                  :   0.846640E-01  0.235178E-02         0.1 %
  fmf_dgemm                  :   0.462941E+00  0.128595E-01         0.4 %
  mmm_dgemm                  :   0.127500E-02  0.354167E-04         0.0 %
  m_diagonalize              :   0.827995E-03  0.229999E-04         0.0 %
  exchange correlation       :   0.541937E+02  0.150538E+01        43.3 %
  local pseudopotentials     :   0.696000E-02  0.193333E-03         0.0 %
  non-local pseudopotentials :   0.388328E+00  0.107869E-01         0.3 %
  hartree potentials         :   0.105006E+01  0.291684E-01         0.8 %
  ion-ion interaction        :   0.977900E-02  0.271639E-03         0.0 %
  structure factors          :   0.607179E-01  0.168661E-02         0.0 %
  phase factors              :   0.130000E-04  0.361111E-06         0.0 %
  masking and packing        :   0.657819E+01  0.182728E+00         5.3 %
  queue fft                  :   0.458701E+02  0.127417E+01        36.6 %
  queue fft (serial)         :   0.187411E+02  0.520586E+00        15.0 %
  queue fft (message passing):   0.255763E+02  0.710452E+00        20.4 %
  HFX potential              :   0.417674E+02  0.116021E+01        33.4 %
  non-local psp FFM          :   0.186827E+00  0.518964E-02         0.1 %
  non-local psp FMF          :   0.127675E+00  0.354653E-02         0.1 %
  non-local psp FFM A        :   0.385909E-01  0.107197E-02         0.0 %
  non-local psp FFM B        :   0.113186E+00  0.314405E-02         0.1 %

== HFX Counters ==
  HFX Evalulations         =    36
  Lin ACE HFX Evalulations =     0


     >>>  JOB COMPLETED     AT Wed Apr  7 15:34:35 2021  <<<

 Task  times  cpu:      358.8s     wall:      358.8s


                                NWChem Input Module
                                -------------------


          ****************************************************
          *                                                  *
          *               NWPW PSPW Calculation              *
          *                                                  *
          * [ (Grassmann/Stiefel manifold implementation)  ] *
          *                                                  *
          *      [ NorthWest Chemistry implementation ]      *
          *                                                  *
          *            version #5.10   06/12/02              *
          *                                                  *
          *    This code was developed by Eric J. Bylaska,   *
          *    and was based upon algorithms and code        *
          *    developed by the group of Prof. John H. Weare *
          *                                                  *
          ****************************************************
     >>>  JOB STARTED       AT Wed Apr  7 15:34:35 2021  <<<
          ================ input data ========================
 wavefunction adjust, new psi:pspw_becke98_H2O1.movecs                          
 -   spin, nalpha, nbeta:                    1                    4                    0

 input psi filename:./pspw_becke98_H2O1.movecs

 number of processors used:         2
 processor grid           :   2 x   1
 parallel mapping         :2d hilbert
 parallel mapping         :  balanced
 number of threads        :         1
 parallel io              :       off

 options:
      boundary conditions  = periodic    (version3)
      electron spin        = restricted

      exchange correlation = 
      0.21984700  Hartree-Fock Exchange
      1.00000000  B98 (HL Schmider, AD Becke, J.Chem.Phys. 108, 9624 (1998) doi:10.1063/1.476438)

      - HFX relaxed
      - HFX restricted orbitals :    1    2    3    4
      - HFX screened coulomb solver
      - HFX screening radius(pspw:HFX_screening_radius): 0.800E+01
      - HFX screening power (pspw:HFX_screening_power) : 0.800E+01
      - HFX screening type (pspw:HFX_screening_type)   : 0
      - HFX scaling parameter (pspw:HFX_parameter)     : 0.220E+00


 elements involved in the cluster:
      1: O   valence charge:  6.0000  lmax=  2
             comment    : Parameterized (Chem.Phys.Lett., vol 322, page 447) Hamman psp
             pseudpotential type            :   0
             highest angular component      :   2
             local potential used           :   2
             number of non-local projections:   4
             cutoff =   0.700   0.700   0.700

      2: H   valence charge:  1.0000  lmax=  1
             comment    : Parameterized (Chem.Phys.Lett., vol 322, page 447) Hamman psp
             pseudpotential type            :   0
             highest angular component      :   1
             local potential used           :   1
             number of non-local projections:   1
             cutoff =   0.800   0.800


 total charge:   0.000

 atomic composition:
     O   :    1     H   :    2

 number of electrons: spin up=     4 (   4 per task)  down=     4 (   4 per task) (Fourier space)
 number of orbitals : spin up=     4 (   4 per task)  down=     4 (   4 per task) (Fourier space)

 supercell:
      cell_name:  cell_default                                      
      lattice:    a1=<  20.000   0.000   0.000 >
                  a2=<   0.000  20.000   0.000 >
                  a3=<   0.000   0.000  20.000 >
      reciprocal: b1=<   0.314   0.000   0.000 >
                  b2=<   0.000   0.314   0.000 >
                  b3=<   0.000   0.000   0.314 >
      lattice:    a=      20.000 b=     20.000 c=      20.000
                  alpha=  90.000 beta=  90.000 gamma=  90.000
                  omega=      8000.0

      density cutoff=100.000  fft= 96x 96x 96(   191162 waves    95581 per task)
      wavefnc cutoff= 50.000  fft= 96x 96x 96(    67522 waves    33761 per task)
      Ewald summation: cut radius=    6.37  and  1
                       Madelung Wigner-Seitz=    1.76011888 (alpha=    2.83729748 rs=12.40700982)

 technical parameters:
      time step=      5.80     fictitious mass=  400000.0
      tolerance=0.100E-06 (energy)   0.100E-06 (density)
      maximum iterations =      1000 (   10 inner    100 outer )





== Energy Calculation ==


          ============ Grassmann lmbfgs iteration ============
     >>>  ITERATION STARTED AT Wed Apr  7 15:34:39 2021  <<<
    iter.           Energy         DeltaE       DeltaRho 
    ------------------------------------------------------
     -  15 steepest descent iterations performed
      10   -0.1721258926E+02   -0.64655E-07    0.12284E-08
  *** tolerance ok. iteration terminated
     >>>  ITERATION ENDED   AT Wed Apr  7 15:35:20 2021  <<<


==  Summary Of Results  ==

 number of electrons: spin up=    4.00000  down=    4.00000 (real space)

 total     energy    :  -0.1721258926E+02 (   -0.57375E+01/ion)
 total orbital energy:  -0.4533098449E+01 (   -0.11333E+01/electron)
 hartree   energy    :   0.1690007385E+02 (    0.42250E+01/electron)
 exc-corr  energy    :  -0.3380547671E+01 (   -0.84514E+00/electron)
 HF exchange energy  :  -0.8660733088E+00 (   -0.21652E+00/electron)
 ion-ion   energy    :   0.2366648438E+01 (    0.78888E+00/ion)

 kinetic (planewave) :   0.1235208601E+02 (    0.30880E+01/electron)
 V_local (planewave) :  -0.4334767847E+02 (   -0.10837E+02/electron)
 V_nl    (planewave) :  -0.1237098101E+01 (   -0.30927E+00/electron)
 V_Coul  (planewave) :   0.3380014769E+02 (    0.84500E+01/electron)
 V_xc.   (planewave) :  -0.4368408963E+01 (   -0.10921E+01/electron)
 K.S. HFX energy     :  -0.1732146618E+01 (   -0.43304E+00/electron)
 Virial Coefficient  :  -0.1226759418E+01

 orbital energies:
    -0.3240278E+00 (  -8.817eV)
    -0.3801479E+00 ( -10.344eV)
    -0.5521466E+00 ( -15.025eV)
    -0.1010227E+01 ( -27.490eV)

 Total PSPW energy     :  -0.1721258926E+02


=== Spin Contamination ===

 <Sexact^2> =    0.0000000000000000     
 <S^2>      =    0.0000000000000000     



== Center of Charge ==

spin up     (   -0.0000,    0.0518,    0.0000 )
spin down   (   -0.0000,    0.0518,    0.0000 )
     total  (   -0.0000,    0.0518,    0.0000 )
ionic       (    0.0000,    0.1375,    0.0000 )


== Molecular Dipole wrt Center of Mass ==

mu   =  (    0.0000,    0.6856,   -0.0000 ) au
|mu| =     0.6856 au,       1.7426 Debye

 output psi filename:./pspw_becke98_H2O1.movecs

 Writing Crystallographic Information File:./H2O1.cif
   - cell not shifted (nwpw:cif_shift_cell .false.)


== Timing ==

cputime in seconds
  prologue    :   0.342525E+01
  main loop   :   0.408491E+02
  epilogue    :   0.140100E+00
  total       :   0.444144E+02
  cputime/step:   0.214995E+01       (      19 evalulations,       1 linesearches)


Time spent doing                        total          step       percent
  total time                 :   0.444152E+02  0.233764E+01       100.0 %
  i/o time                   :   0.301540E+00  0.158705E-01         0.7 %
  FFTs                       :   0.474678E+01  0.249830E+00        10.7 %
  dot products               :   0.923500E-01  0.486052E-02         0.2 %
  geodesic                   :   0.150930E-01  0.794368E-03         0.0 %
  ffm_dgemm                  :   0.433240E-01  0.228021E-02         0.1 %
  fmf_dgemm                  :   0.233900E-01  0.123105E-02         0.1 %
  mmm_dgemm                  :   0.251957E-03  0.132609E-04         0.0 %
  m_diagonalize              :   0.900000E-04  0.473684E-05         0.0 %
  exchange correlation       :   0.244569E+02  0.128721E+01        55.1 %
  local pseudopotentials     :   0.640600E-02  0.337158E-03         0.0 %
  non-local pseudopotentials :   0.141592E+00  0.745221E-02         0.3 %
  hartree potentials         :   0.441284E+00  0.232255E-01         1.0 %
  ion-ion interaction        :   0.451600E-02  0.237684E-03         0.0 %
  structure factors          :   0.316770E-01  0.166721E-02         0.1 %
  phase factors              :   0.110000E-04  0.578947E-06         0.0 %
  masking and packing        :   0.186706E+01  0.982662E-01         4.2 %
  queue fft                  :   0.124493E+02  0.655228E+00        28.0 %
  queue fft (serial)         :   0.517800E+01  0.272526E+00        11.7 %
  queue fft (message passing):   0.685214E+01  0.360639E+00        15.4 %
  HFX potential              :   0.113755E+02  0.598708E+00        25.6 %
  non-local psp FFM          :   0.703320E-01  0.370168E-02         0.2 %
  non-local psp FMF          :   0.352660E-01  0.185611E-02         0.1 %
  non-local psp FFM A        :   0.194080E-01  0.102147E-02         0.0 %
  non-local psp FFM B        :   0.353500E-01  0.186053E-02         0.1 %

== HFX Counters ==
  HFX Evalulations         =    19
  Lin ACE HFX Evalulations =     0


     >>>  JOB COMPLETED     AT Wed Apr  7 15:35:20 2021  <<<

 Task  times  cpu:       44.4s     wall:       44.4s


                                NWChem Input Module
                                -------------------



  Deleted DRIVER restart files 



                           NWChem Geometry Optimization
                           ----------------------------




                           pspw_becke98 QA test for H2O


 maximum gradient threshold         (gmax) =   0.000450
 rms gradient threshold             (grms) =   0.000300
 maximum cartesian step threshold   (xmax) =   0.001800
 rms cartesian step threshold       (xrms) =   0.001200
 fixed trust radius                (trust) =   0.300000
 maximum step size to saddle      (sadstp) =   0.100000
 energy precision                  (eprec) =   1.0D-07
 maximum number of steps          (nptopt) =   30
 initial hessian option           (inhess) =    0
 line search option               (linopt) =    1
 hessian update option            (modupd) =    1
 saddle point option              (modsad) =    0
 initial eigen-mode to follow     (moddir) =    0
 initial variable to follow       (vardir) =    0
 follow first negative mode     (firstneg) =    T
 apply conjugacy                    (opcg) =    F
 source of zmatrix                         =           


          -------------------
          Energy Minimization
          -------------------


 Using diagonal initial Hessian 

          --------
          Step   0
          --------


                         Geometry "geometry" -> "geometry"
                         ---------------------------------

 Output coordinates in angstroms (scale by  1.889725989 to convert to a.u.)

  No.       Tag          Charge          X              Y              Z
 ---- ---------------- ---------- -------------- -------------- --------------
    1 O                    8.0000     0.00000000    -0.05890000     0.00000000
    2 H                    1.0000    -0.81100000     0.46770000     0.00000000
    3 H                    1.0000     0.81100000     0.46770000     0.00000000

      Atomic Mass 
      ----------- 

      O                 15.994910
      H                  1.007825


 Effective nuclear repulsion energy (a.u.)       9.0823094384

            Nuclear Dipole moment (a.u.) 
            ----------------------------
        X                 Y               Z
 ---------------- ---------------- ----------------
     0.0000000000     0.8772108039     0.0000000000

          ****************************************************
          *                                                  *
          *               NWPW PSPW Calculation              *
          *                                                  *
          * [ (Grassmann/Stiefel manifold implementation)  ] *
          *                                                  *
          *      [ NorthWest Chemistry implementation ]      *
          *                                                  *
          *            version #5.10   06/12/02              *
          *                                                  *
          *    This code was developed by Eric J. Bylaska,   *
          *    and was based upon algorithms and code        *
          *    developed by the group of Prof. John H. Weare *
          *                                                  *
          ****************************************************
     >>>  JOB STARTED       AT Wed Apr  7 15:35:20 2021  <<<
          ================ input data ========================

 input psi filename:./pspw_becke98_H2O1.movecs

 number of processors used:         2
 processor grid           :   2 x   1
 parallel mapping         :2d hilbert
 parallel mapping         :  balanced
 number of threads        :         1
 parallel io              :       off

 options:
      boundary conditions  = periodic    (version3)
      electron spin        = restricted

      exchange correlation = 
      0.21984700  Hartree-Fock Exchange
      1.00000000  B98 (HL Schmider, AD Becke, J.Chem.Phys. 108, 9624 (1998) doi:10.1063/1.476438)

      - HFX relaxed
      - HFX restricted orbitals :    1    2    3    4
      - HFX screened coulomb solver
      - HFX screening radius(pspw:HFX_screening_radius): 0.800E+01
      - HFX screening power (pspw:HFX_screening_power) : 0.800E+01
      - HFX screening type (pspw:HFX_screening_type)   : 0
      - HFX scaling parameter (pspw:HFX_parameter)     : 0.220E+00


 elements involved in the cluster:
      1: O   valence charge:  6.0000  lmax=  2
             comment    : Parameterized (Chem.Phys.Lett., vol 322, page 447) Hamman psp
             pseudpotential type            :   0
             highest angular component      :   2
             local potential used           :   2
             number of non-local projections:   4
             cutoff =   0.700   0.700   0.700

      2: H   valence charge:  1.0000  lmax=  1
             comment    : Parameterized (Chem.Phys.Lett., vol 322, page 447) Hamman psp
             pseudpotential type            :   0
             highest angular component      :   1
             local potential used           :   1
             number of non-local projections:   1
             cutoff =   0.800   0.800


 total charge:   0.000

 atomic composition:
     O   :    1     H   :    2

 number of electrons: spin up=     4 (   4 per task)  down=     4 (   4 per task) (Fourier space)
 number of orbitals : spin up=     4 (   4 per task)  down=     4 (   4 per task) (Fourier space)

 supercell:
      cell_name:  cell_default                                      
      lattice:    a1=<  20.000   0.000   0.000 >
                  a2=<   0.000  20.000   0.000 >
                  a3=<   0.000   0.000  20.000 >
      reciprocal: b1=<   0.314   0.000   0.000 >
                  b2=<   0.000   0.314   0.000 >
                  b3=<   0.000   0.000   0.314 >
      lattice:    a=      20.000 b=     20.000 c=      20.000
                  alpha=  90.000 beta=  90.000 gamma=  90.000
                  omega=      8000.0

      density cutoff=100.000  fft= 96x 96x 96(   191162 waves    95581 per task)
      wavefnc cutoff= 50.000  fft= 96x 96x 96(    67522 waves    33761 per task)
      Ewald summation: cut radius=    6.37  and  1
                       Madelung Wigner-Seitz=    1.76011888 (alpha=    2.83729748 rs=12.40700982)

 technical parameters:
      time step=      5.80     fictitious mass=  400000.0
      tolerance=0.100E-06 (energy)   0.100E-06 (density)
      maximum iterations =      1000 (   10 inner    100 outer )





== Energy Calculation ==


          ============ Grassmann lmbfgs iteration ============
     >>>  ITERATION STARTED AT Wed Apr  7 15:35:23 2021  <<<
    iter.           Energy         DeltaE       DeltaRho 
    ------------------------------------------------------
      10   -0.1721258928E+02   -0.22862E-07    0.12119E-09
  *** tolerance ok. iteration terminated
     >>>  ITERATION ENDED   AT Wed Apr  7 15:35:30 2021  <<<


==  Summary Of Results  ==

 number of electrons: spin up=    4.00000  down=    4.00000 (real space)

 total     energy    :  -0.1721258928E+02 (   -0.57375E+01/ion)
 total orbital energy:  -0.4533112091E+01 (   -0.11333E+01/electron)
 hartree   energy    :   0.1690005865E+02 (    0.42250E+01/electron)
 exc-corr  energy    :  -0.3380544787E+01 (   -0.84514E+00/electron)
 HF exchange energy  :  -0.8660724235E+00 (   -0.21652E+00/electron)
 ion-ion   energy    :   0.2366648438E+01 (    0.78888E+00/ion)

 kinetic (planewave) :   0.1235208247E+02 (    0.30880E+01/electron)
 V_local (planewave) :  -0.4334765412E+02 (   -0.10837E+02/electron)
 V_nl    (planewave) :  -0.1237107501E+01 (   -0.30928E+00/electron)
 V_Coul  (planewave) :   0.3380011729E+02 (    0.84500E+01/electron)
 V_xc.   (planewave) :  -0.4368405383E+01 (   -0.10921E+01/electron)
 K.S. HFX energy     :  -0.1732144847E+01 (   -0.43304E+00/electron)
 Virial Coefficient  :  -0.1226760731E+01

 orbital energies:
    -0.3240301E+00 (  -8.817eV)
    -0.3801499E+00 ( -10.344eV)
    -0.5521476E+00 ( -15.025eV)
    -0.1010228E+01 ( -27.490eV)

 Total PSPW energy     :  -0.1721258928E+02


=== Spin Contamination ===

 <Sexact^2> =    0.0000000000000000     
 <S^2>      =    0.0000000000000000     



== Center of Charge ==

spin up     (   -0.0000,    0.0518,    0.0000 )
spin down   (   -0.0000,    0.0518,    0.0000 )
     total  (   -0.0000,    0.0518,    0.0000 )
ionic       (    0.0000,    0.1375,    0.0000 )


== Molecular Dipole wrt Center of Mass ==

mu   =  (    0.0000,    0.6857,   -0.0000 ) au
|mu| =     0.6857 au,       1.7427 Debye


Translation force removed: (   -0.00000    0.00911    0.00000)


          =============  Ion Gradients =================
 Ion Forces:
        1 O    (   -0.000000    0.003710    0.000000 )
        2 H    (    0.032069   -0.014834   -0.000000 )
        3 H    (   -0.032069   -0.014834   -0.000000 )
        C.O.M. (    0.000000   -0.000000   -0.000000 )
          ===============================================
          |F|       =   0.501069E-01
          |F|/nion  =   0.167023E-01
          max|Fatom|=   0.353337E-01 (   1.817eV/Angstrom)



 output psi filename:./pspw_becke98_H2O1.movecs

 Writing Crystallographic Information File:./H2O1.cif
   - cell not shifted (nwpw:cif_shift_cell .false.)


== Timing ==

cputime in seconds
  prologue    :   0.299869E+01
  main loop   :   0.736208E+01
  epilogue    :   0.140222E+00
  total       :   0.105010E+02
  cputime/step:   0.184052E+01       (       4 evalulations,       1 linesearches)


Time spent doing                        total          step       percent
  total time                 :   0.105018E+02  0.262545E+01       100.0 %
  i/o time                   :   0.298674E+00  0.746685E-01         2.8 %
  FFTs                       :   0.935438E+00  0.233860E+00         8.9 %
  dot products               :   0.294369E-01  0.735923E-02         0.3 %
  geodesic                   :   0.141000E-01  0.352500E-02         0.1 %
  ffm_dgemm                  :   0.237600E-02  0.594000E-03         0.0 %
  fmf_dgemm                  :   0.115500E-01  0.288750E-02         0.1 %
  mmm_dgemm                  :   0.480000E-04  0.120000E-04         0.0 %
  m_diagonalize              :   0.879990E-04  0.219998E-04         0.0 %
  exchange correlation       :   0.411328E+01  0.102832E+01        39.2 %
  local pseudopotentials     :   0.150160E-01  0.375400E-02         0.1 %
  non-local pseudopotentials :   0.394560E-01  0.986400E-02         0.4 %
  hartree potentials         :   0.261198E+00  0.652995E-01         2.5 %
  ion-ion interaction        :   0.137220E-01  0.343050E-02         0.1 %
  structure factors          :   0.163640E-01  0.409100E-02         0.2 %
  phase factors              :   0.130000E-04  0.325000E-05         0.0 %
  masking and packing        :   0.418851E+00  0.104713E+00         4.0 %
  queue fft                  :   0.237051E+01  0.592627E+00        22.6 %
  queue fft (serial)         :   0.902772E+00  0.225693E+00         8.6 %
  queue fft (message passing):   0.138200E+01  0.345501E+00        13.2 %
  HFX potential              :   0.219537E+01  0.548843E+00        20.9 %
  non-local psp FFM          :   0.131880E-01  0.329700E-02         0.1 %
  non-local psp FMF          :   0.717400E-02  0.179350E-02         0.1 %
  non-local psp FFM A        :   0.385299E-02  0.963248E-03         0.0 %
  non-local psp FFM B        :   0.643500E-02  0.160875E-02         0.1 %

== HFX Counters ==
  HFX Evalulations         =     4
  Lin ACE HFX Evalulations =     0


     >>>  JOB COMPLETED     AT Wed Apr  7 15:35:30 2021  <<<

@ Step       Energy      Delta E   Gmax     Grms     Xrms     Xmax   Walltime
@ ---- ---------------- -------- -------- -------- -------- -------- --------
@    0     -17.21258928  0.0D+00  0.03207  0.01670  0.00000  0.00000    413.8
                                                                    

          ****************************************************
          *                                                  *
          *               NWPW PSPW Calculation              *
          *                                                  *
          * [ (Grassmann/Stiefel manifold implementation)  ] *
          *                                                  *
          *      [ NorthWest Chemistry implementation ]      *
          *                                                  *
          *            version #5.10   06/12/02              *
          *                                                  *
          *    This code was developed by Eric J. Bylaska,   *
          *    and was based upon algorithms and code        *
          *    developed by the group of Prof. John H. Weare *
          *                                                  *
          ****************************************************
     >>>  JOB STARTED       AT Wed Apr  7 15:35:30 2021  <<<
          ================ input data ========================

 input psi filename:./pspw_becke98_H2O1.movecs

 number of processors used:         2
 processor grid           :   2 x   1
 parallel mapping         :2d hilbert
 parallel mapping         :  balanced
 number of threads        :         1
 parallel io              :       off

 options:
      boundary conditions  = periodic    (version3)
      electron spin        = restricted

      exchange correlation = 
      0.21984700  Hartree-Fock Exchange
      1.00000000  B98 (HL Schmider, AD Becke, J.Chem.Phys. 108, 9624 (1998) doi:10.1063/1.476438)

      - HFX relaxed
      - HFX restricted orbitals :    1    2    3    4
      - HFX screened coulomb solver
      - HFX screening radius(pspw:HFX_screening_radius): 0.800E+01
      - HFX screening power (pspw:HFX_screening_power) : 0.800E+01
      - HFX screening type (pspw:HFX_screening_type)   : 0
      - HFX scaling parameter (pspw:HFX_parameter)     : 0.220E+00


 elements involved in the cluster:
      1: O   valence charge:  6.0000  lmax=  2
             comment    : Parameterized (Chem.Phys.Lett., vol 322, page 447) Hamman psp
             pseudpotential type            :   0
             highest angular component      :   2
             local potential used           :   2
             number of non-local projections:   4
             cutoff =   0.700   0.700   0.700

      2: H   valence charge:  1.0000  lmax=  1
             comment    : Parameterized (Chem.Phys.Lett., vol 322, page 447) Hamman psp
             pseudpotential type            :   0
             highest angular component      :   1
             local potential used           :   1
             number of non-local projections:   1
             cutoff =   0.800   0.800


 total charge:   0.000

 atomic composition:
     O   :    1     H   :    2

 number of electrons: spin up=     4 (   4 per task)  down=     4 (   4 per task) (Fourier space)
 number of orbitals : spin up=     4 (   4 per task)  down=     4 (   4 per task) (Fourier space)

 supercell:
      cell_name:  cell_default                                      
      lattice:    a1=<  20.000   0.000   0.000 >
                  a2=<   0.000  20.000   0.000 >
                  a3=<   0.000   0.000  20.000 >
      reciprocal: b1=<   0.314   0.000   0.000 >
                  b2=<   0.000   0.314   0.000 >
                  b3=<   0.000   0.000   0.314 >
      lattice:    a=      20.000 b=     20.000 c=      20.000
                  alpha=  90.000 beta=  90.000 gamma=  90.000
                  omega=      8000.0

      density cutoff=100.000  fft= 96x 96x 96(   191162 waves    95581 per task)
      wavefnc cutoff= 50.000  fft= 96x 96x 96(    67522 waves    33761 per task)
      Ewald summation: cut radius=    6.37  and  1
                       Madelung Wigner-Seitz=    1.76011888 (alpha=    2.83729748 rs=12.40700982)

 technical parameters:
      time step=      5.80     fictitious mass=  400000.0
      tolerance=0.100E-06 (energy)   0.100E-06 (density)
      maximum iterations =      1000 (   10 inner    100 outer )





== Energy Calculation ==


          ============ Grassmann lmbfgs iteration ============
     >>>  ITERATION STARTED AT Wed Apr  7 15:35:33 2021  <<<
    iter.           Energy         DeltaE       DeltaRho 
    ------------------------------------------------------
      10   -0.1721372300E+02   -0.55070E-03    0.43479E-01
      20   -0.1721492596E+02   -0.20451E-04    0.78533E-04
      30   -0.1721498432E+02   -0.10778E-05    0.18460E-05
      40   -0.1721498700E+02   -0.86851E-07    0.61884E-07
  *** tolerance ok. iteration terminated
     >>>  ITERATION ENDED   AT Wed Apr  7 15:38:27 2021  <<<


==  Summary Of Results  ==

 number of electrons: spin up=    4.00000  down=    4.00000 (real space)

 total     energy    :  -0.1721498700E+02 (   -0.57383E+01/ion)
 total orbital energy:  -0.4596739659E+01 (   -0.11492E+01/electron)
 hartree   energy    :   0.1699737500E+02 (    0.42493E+01/electron)
 exc-corr  energy    :  -0.3394148532E+01 (   -0.84854E+00/electron)
 HF exchange energy  :  -0.8701001226E+00 (   -0.21753E+00/electron)
 ion-ion   energy    :   0.2517971792E+01 (    0.83932E+00/ion)

 kinetic (planewave) :   0.1238669917E+02 (    0.30967E+01/electron)
 V_local (planewave) :  -0.4361849401E+02 (   -0.10905E+02/electron)
 V_nl    (planewave) :  -0.1234290302E+01 (   -0.30857E+00/electron)
 V_Coul  (planewave) :   0.3399475000E+02 (    0.84987E+01/electron)
 V_xc.   (planewave) :  -0.4385204282E+01 (   -0.10963E+01/electron)
 K.S. HFX energy     :  -0.1740200245E+01 (   -0.43505E+00/electron)
 Virial Coefficient  :  -0.1230613449E+01

 orbital energies:
    -0.3287975E+00 (  -8.947eV)
    -0.4100063E+00 ( -11.157eV)
    -0.5313107E+00 ( -14.458eV)
    -0.1028255E+01 ( -27.980eV)

 Total PSPW energy     :  -0.1721498700E+02


=== Spin Contamination ===

 <Sexact^2> =    0.0000000000000000     
 <S^2>      =    0.0000000000000000     



== Center of Charge ==

spin up     (   -0.0000,   -0.0342,    0.0000 )
spin down   (   -0.0000,   -0.0342,    0.0000 )
     total  (   -0.0000,   -0.0342,    0.0000 )
ionic       (   -0.0000,    0.0630,   -0.0000 )


== Molecular Dipole wrt Center of Mass ==

mu   =  (    0.0000,    0.7779,   -0.0000 ) au
|mu| =     0.7779 au,       1.9771 Debye

 output psi filename:./pspw_becke98_H2O1.movecs

 Writing Crystallographic Information File:./H2O1.cif
   - cell not shifted (nwpw:cif_shift_cell .false.)


== Timing ==

cputime in seconds
  prologue    :   0.301006E+01
  main loop   :   0.173235E+03
  epilogue    :   0.143558E+00
  total       :   0.176389E+03
  cputime/step:   0.203806E+01       (      85 evalulations,      38 linesearches)


Time spent doing                        total          step       percent
  total time                 :   0.176390E+03  0.207517E+01       100.0 %
  i/o time                   :   0.306970E+00  0.361141E-02         0.2 %
  FFTs                       :   0.200891E+02  0.236342E+00        11.4 %
  dot products               :   0.603811E+00  0.710366E-02         0.3 %
  geodesic                   :   0.792178E+00  0.931974E-02         0.4 %
  ffm_dgemm                  :   0.112124E+00  0.131911E-02         0.1 %
  fmf_dgemm                  :   0.551816E+00  0.649195E-02         0.3 %
  mmm_dgemm                  :   0.230800E-02  0.271529E-04         0.0 %
  m_diagonalize              :   0.214498E-02  0.252351E-04         0.0 %
  exchange correlation       :   0.101449E+03  0.119352E+01        57.5 %
  local pseudopotentials     :   0.628000E-02  0.738824E-04         0.0 %
  non-local pseudopotentials :   0.633690E+00  0.745518E-02         0.4 %
  hartree potentials         :   0.125600E+01  0.147765E-01         0.7 %
  ion-ion interaction        :   0.193530E-01  0.227682E-03         0.0 %
  structure factors          :   0.134712E+00  0.158485E-02         0.1 %
  phase factors              :   0.150000E-04  0.176471E-06         0.0 %
  masking and packing        :   0.806702E+01  0.949061E-01         4.6 %
  queue fft                  :   0.538203E+02  0.633180E+00        30.5 %
  queue fft (serial)         :   0.215784E+02  0.253864E+00        12.2 %
  queue fft (message passing):   0.303987E+02  0.357631E+00        17.2 %
  HFX potential              :   0.494389E+02  0.581634E+00        28.0 %
  non-local psp FFM          :   0.316402E+00  0.372238E-02         0.2 %
  non-local psp FMF          :   0.155536E+00  0.182984E-02         0.1 %
  non-local psp FFM A        :   0.881769E-01  0.103737E-02         0.0 %
  non-local psp FFM B        :   0.154799E+00  0.182116E-02         0.1 %

== HFX Counters ==
  HFX Evalulations         =    85
  Lin ACE HFX Evalulations =     0


     >>>  JOB COMPLETED     AT Wed Apr  7 15:38:27 2021  <<<
 Line search: 
     step= 1.00 grad=-8.8D-03 hess= 6.4D-03 energy=    -17.214987 mode=downhill
 new step= 0.69                   predicted energy=    -17.215619

          --------
          Step   1
          --------


                         Geometry "geometry" -> "geometry"
                         ---------------------------------

 Output coordinates in angstroms (scale by  1.889725989 to convert to a.u.)

  No.       Tag          Charge          X              Y              Z
 ---- ---------------- ---------- -------------- -------------- --------------
    1 O                    8.0000    -0.00000001    -0.10219094     0.00000000
    2 H                    1.0000    -0.74849477     0.48934547    -0.00000000
    3 H                    1.0000     0.74849478     0.48934547    -0.00000000

      Atomic Mass 
      ----------- 

      O                 15.994910
      H                  1.007825


 Effective nuclear repulsion energy (a.u.)       9.2283710952

            Nuclear Dipole moment (a.u.) 
            ----------------------------
        X                 Y               Z
 ---------------- ---------------- ----------------
    -0.0000000687     0.3045546934     0.0000000000

          ****************************************************
          *                                                  *
          *               NWPW PSPW Calculation              *
          *                                                  *
          * [ (Grassmann/Stiefel manifold implementation)  ] *
          *                                                  *
          *      [ NorthWest Chemistry implementation ]      *
          *                                                  *
          *            version #5.10   06/12/02              *
          *                                                  *
          *    This code was developed by Eric J. Bylaska,   *
          *    and was based upon algorithms and code        *
          *    developed by the group of Prof. John H. Weare *
          *                                                  *
          ****************************************************
     >>>  JOB STARTED       AT Wed Apr  7 15:38:27 2021  <<<
          ================ input data ========================

 input psi filename:./pspw_becke98_H2O1.movecs

 number of processors used:         2
 processor grid           :   2 x   1
 parallel mapping         :2d hilbert
 parallel mapping         :  balanced
 number of threads        :         1
 parallel io              :       off

 options:
      boundary conditions  = periodic    (version3)
      electron spin        = restricted

      exchange correlation = 
      0.21984700  Hartree-Fock Exchange
      1.00000000  B98 (HL Schmider, AD Becke, J.Chem.Phys. 108, 9624 (1998) doi:10.1063/1.476438)

      - HFX relaxed
      - HFX restricted orbitals :    1    2    3    4
      - HFX screened coulomb solver
      - HFX screening radius(pspw:HFX_screening_radius): 0.800E+01
      - HFX screening power (pspw:HFX_screening_power) : 0.800E+01
      - HFX screening type (pspw:HFX_screening_type)   : 0
      - HFX scaling parameter (pspw:HFX_parameter)     : 0.220E+00


 elements involved in the cluster:
      1: O   valence charge:  6.0000  lmax=  2
             comment    : Parameterized (Chem.Phys.Lett., vol 322, page 447) Hamman psp
[...]
  exchange correlation       :   0.313444E+02  0.120555E+01        55.5 %
  local pseudopotentials     :   0.638700E-02  0.245654E-03         0.0 %
  non-local pseudopotentials :   0.197262E+00  0.758700E-02         0.3 %
  hartree potentials         :   0.528940E+00  0.203438E-01         0.9 %
  ion-ion interaction        :   0.987600E-02  0.379846E-03         0.0 %
  structure factors          :   0.446610E-01  0.171773E-02         0.1 %
  phase factors              :   0.160000E-04  0.615385E-06         0.0 %
  masking and packing        :   0.248848E+01  0.957107E-01         4.4 %
  queue fft                  :   0.164574E+02  0.632977E+00        29.1 %
  queue fft (serial)         :   0.661554E+01  0.254444E+00        11.7 %
  queue fft (message passing):   0.928164E+01  0.356986E+00        16.4 %
  HFX potential              :   0.150892E+02  0.580353E+00        26.7 %
  non-local psp FFM          :   0.996890E-01  0.383419E-02         0.2 %
  non-local psp FMF          :   0.470900E-01  0.181115E-02         0.1 %
  non-local psp FFM A        :   0.268000E-01  0.103077E-02         0.0 %
  non-local psp FFM B        :   0.478250E-01  0.183942E-02         0.1 %

== HFX Counters ==
  HFX Evalulations         =    26
  Lin ACE HFX Evalulations =     0


     >>>  JOB COMPLETED     AT Wed Apr  7 15:49:27 2021  <<<
 Line search: 
     step= 1.00 grad=-5.6D-07 hess= 6.7D-07 energy=    -17.216280 mode=bracket 
 new step= 0.42                   predicted energy=    -17.216280

          --------
          Step   5
          --------


                         Geometry "geometry" -> "geometry"
                         ---------------------------------

 Output coordinates in angstroms (scale by  1.889725989 to convert to a.u.)

  No.       Tag          Charge          X              Y              Z
 ---- ---------------- ---------- -------------- -------------- --------------
    1 O                    8.0000     0.00000000    -0.09026836     0.00000000
    2 H                    1.0000    -0.74287601     0.48338418    -0.00000000
    3 H                    1.0000     0.74287601     0.48338418    -0.00000000

      Atomic Mass 
      ----------- 

      O                 15.994910
      H                  1.007825


 Effective nuclear repulsion energy (a.u.)       9.3770184821

            Nuclear Dipole moment (a.u.) 
            ----------------------------
        X                 Y               Z
 ---------------- ---------------- ----------------
     0.0000000074     0.4622675610     0.0000000000

          ****************************************************
          *                                                  *
          *               NWPW PSPW Calculation              *
          *                                                  *
          * [ (Grassmann/Stiefel manifold implementation)  ] *
          *                                                  *
          *      [ NorthWest Chemistry implementation ]      *
          *                                                  *
          *            version #5.10   06/12/02              *
          *                                                  *
          *    This code was developed by Eric J. Bylaska,   *
          *    and was based upon algorithms and code        *
          *    developed by the group of Prof. John H. Weare *
          *                                                  *
          ****************************************************
     >>>  JOB STARTED       AT Wed Apr  7 15:49:27 2021  <<<
          ================ input data ========================

 input psi filename:./pspw_becke98_H2O1.movecs

 number of processors used:         2
 processor grid           :   2 x   1
 parallel mapping         :2d hilbert
 parallel mapping         :  balanced
 number of threads        :         1
 parallel io              :       off

 options:
      boundary conditions  = periodic    (version3)
      electron spin        = restricted

      exchange correlation = 
      0.21984700  Hartree-Fock Exchange
      1.00000000  B98 (HL Schmider, AD Becke, J.Chem.Phys. 108, 9624 (1998) doi:10.1063/1.476438)

      - HFX relaxed
      - HFX restricted orbitals :    1    2    3    4
      - HFX screened coulomb solver
      - HFX screening radius(pspw:HFX_screening_radius): 0.800E+01
      - HFX screening power (pspw:HFX_screening_power) : 0.800E+01
      - HFX screening type (pspw:HFX_screening_type)   : 0
      - HFX scaling parameter (pspw:HFX_parameter)     : 0.220E+00


 elements involved in the cluster:
      1: O   valence charge:  6.0000  lmax=  2
             comment    : Parameterized (Chem.Phys.Lett., vol 322, page 447) Hamman psp
             pseudpotential type            :   0
             highest angular component      :   2
             local potential used           :   2
             number of non-local projections:   4
             cutoff =   0.700   0.700   0.700

      2: H   valence charge:  1.0000  lmax=  1
             comment    : Parameterized (Chem.Phys.Lett., vol 322, page 447) Hamman psp
             pseudpotential type            :   0
             highest angular component      :   1
             local potential used           :   1
             number of non-local projections:   1
             cutoff =   0.800   0.800


 total charge:   0.000

 atomic composition:
     O   :    1     H   :    2

 number of electrons: spin up=     4 (   4 per task)  down=     4 (   4 per task) (Fourier space)
 number of orbitals : spin up=     4 (   4 per task)  down=     4 (   4 per task) (Fourier space)

 supercell:
      cell_name:  cell_default                                      
      lattice:    a1=<  20.000   0.000   0.000 >
                  a2=<   0.000  20.000   0.000 >
                  a3=<   0.000   0.000  20.000 >
      reciprocal: b1=<   0.314   0.000   0.000 >
                  b2=<   0.000   0.314   0.000 >
                  b3=<   0.000   0.000   0.314 >
      lattice:    a=      20.000 b=     20.000 c=      20.000
                  alpha=  90.000 beta=  90.000 gamma=  90.000
                  omega=      8000.0

      density cutoff=100.000  fft= 96x 96x 96(   191162 waves    95581 per task)
      wavefnc cutoff= 50.000  fft= 96x 96x 96(    67522 waves    33761 per task)
      Ewald summation: cut radius=    6.37  and  1
                       Madelung Wigner-Seitz=    1.76011888 (alpha=    2.83729748 rs=12.40700982)

 technical parameters:
      time step=      5.80     fictitious mass=  400000.0
      tolerance=0.100E-06 (energy)   0.100E-06 (density)
      maximum iterations =      1000 (   10 inner    100 outer )





== Energy Calculation ==


          ============ Grassmann lmbfgs iteration ============
     >>>  ITERATION STARTED AT Wed Apr  7 15:49:30 2021  <<<
    iter.           Energy         DeltaE       DeltaRho 
    ------------------------------------------------------
      10   -0.1721628034E+02   -0.44030E-08    0.53110E-06
      20   -0.1721628034E+02   -0.24209E-08    0.24433E-10
  *** tolerance ok. iteration terminated
     >>>  ITERATION ENDED   AT Wed Apr  7 15:50:25 2021  <<<


==  Summary Of Results  ==

 number of electrons: spin up=    4.00000  down=    4.00000 (real space)

 total     energy    :  -0.1721628034E+02 (   -0.57388E+01/ion)
 total orbital energy:  -0.4611460637E+01 (   -0.11529E+01/electron)
 hartree   energy    :   0.1706628603E+02 (    0.42666E+01/electron)
 exc-corr  energy    :  -0.3403097907E+01 (   -0.85077E+00/electron)
 HF exchange energy  :  -0.8730552797E+00 (   -0.21826E+00/electron)
 ion-ion   energy    :   0.2594117524E+01 (    0.86471E+00/ion)

 kinetic (planewave) :   0.1245066699E+02 (    0.31127E+01/electron)
 V_local (planewave) :  -0.4378665263E+02 (   -0.10947E+02/electron)
 V_nl    (planewave) :  -0.1264545070E+01 (   -0.31614E+00/electron)
 V_Coul  (planewave) :   0.3413257206E+02 (    0.85331E+01/electron)
 V_xc.   (planewave) :  -0.4397391430E+01 (   -0.10993E+01/electron)
 K.S. HFX energy     :  -0.1746110559E+01 (   -0.43653E+00/electron)
 Virial Coefficient  :  -0.1230136271E+01

 orbital energies:
    -0.3281656E+00 (  -8.930eV)
    -0.3996930E+00 ( -10.876eV)
    -0.5484527E+00 ( -14.924eV)
    -0.1029419E+01 ( -28.012eV)

 Total PSPW energy     :  -0.1721628034E+02


=== Spin Contamination ===

 <Sexact^2> =    0.0000000000000000     
 <S^2>      =    0.0000000000000000     



== Center of Charge ==

spin up     (    0.0000,    0.0078,   -0.0000 )
spin down   (    0.0000,    0.0078,   -0.0000 )
     total  (    0.0000,    0.0078,   -0.0000 )
ionic       (    0.0000,    0.1004,    0.0000 )


== Molecular Dipole wrt Center of Mass ==

mu   =  (   -0.0000,    0.7411,    0.0000 ) au
|mu| =     0.7411 au,       1.8835 Debye


Translation force removed: (   -0.00000   -0.00298    0.00000)


          =============  Ion Gradients =================
 Ion Forces:
        1 O    (   -0.000000    0.000011    0.000000 )
        2 H    (    0.000101   -0.000042   -0.000000 )
        3 H    (   -0.000101   -0.000042   -0.000000 )
        C.O.M. (    0.000000    0.000000    0.000000 )
          ===============================================
          |F|       =   0.154896E-03
          |F|/nion  =   0.516320E-04
          max|Fatom|=   0.109273E-03 (   0.006eV/Angstrom)



 output psi filename:./pspw_becke98_H2O1.movecs

 Writing Crystallographic Information File:./H2O1.cif
   - cell not shifted (nwpw:cif_shift_cell .false.)


== Timing ==

cputime in seconds
  prologue    :   0.299719E+01
  main loop   :   0.555292E+02
  epilogue    :   0.142695E+00
  total       :   0.586691E+02
  cputime/step:   0.205664E+01       (      27 evalulations,      11 linesearches)


Time spent doing                        total          step       percent
  total time                 :   0.586697E+02  0.217295E+01       100.0 %
  i/o time                   :   0.306347E+00  0.113462E-01         0.5 %
  FFTs                       :   0.641195E+01  0.237480E+00        10.9 %
  dot products               :   0.185181E+00  0.685855E-02         0.3 %
  geodesic                   :   0.215896E+00  0.799615E-02         0.4 %
  ffm_dgemm                  :   0.324620E-01  0.120230E-02         0.1 %
  fmf_dgemm                  :   0.159011E+00  0.588929E-02         0.3 %
  mmm_dgemm                  :   0.692000E-03  0.256296E-04         0.0 %
  m_diagonalize              :   0.650994E-03  0.241109E-04         0.0 %
  exchange correlation       :   0.326987E+02  0.121106E+01        55.7 %
  local pseudopotentials     :   0.142450E-01  0.527593E-03         0.0 %
  non-local pseudopotentials :   0.210509E+00  0.779663E-02         0.4 %
  hartree potentials         :   0.550124E+00  0.203750E-01         0.9 %
  ion-ion interaction        :   0.189040E-01  0.700148E-03         0.0 %
  structure factors          :   0.523240E-01  0.193792E-02         0.1 %
  phase factors              :   0.100000E-04  0.370370E-06         0.0 %
  masking and packing        :   0.258271E+01  0.956558E-01         4.4 %
  queue fft                  :   0.170914E+02  0.633015E+00        29.1 %
  queue fft (serial)         :   0.687480E+01  0.254622E+00        11.7 %
  queue fft (message passing):   0.963189E+01  0.356737E+00        16.4 %
  HFX potential              :   0.156863E+02  0.580974E+00        26.7 %
  non-local psp FFM          :   0.969100E-01  0.358926E-02         0.2 %
  non-local psp FMF          :   0.493500E-01  0.182778E-02         0.1 %
  non-local psp FFM A        :   0.275020E-01  0.101859E-02         0.0 %
  non-local psp FFM B        :   0.481380E-01  0.178289E-02         0.1 %

== HFX Counters ==
  HFX Evalulations         =    27
  Lin ACE HFX Evalulations =     0


     >>>  JOB COMPLETED     AT Wed Apr  7 15:50:25 2021  <<<

  Step       Energy      Delta E   Gmax     Grms     Xrms     Xmax   Walltime
  ---- ---------------- -------- -------- -------- -------- -------- --------
@    5     -17.21628034 -2.8D-08  0.00010  0.00005  0.00016  0.00029   1308.8
                                     ok       ok       ok       ok  


      ----------------------
      Optimization converged
      ----------------------


  Step       Energy      Delta E   Gmax     Grms     Xrms     Xmax   Walltime
  ---- ---------------- -------- -------- -------- -------- -------- --------
@    5     -17.21628034 -2.8D-08  0.00010  0.00005  0.00016  0.00029   1308.8
                                     ok       ok       ok       ok  



                         Geometry "geometry" -> "geometry"
                         ---------------------------------

 Output coordinates in angstroms (scale by  1.889725989 to convert to a.u.)

  No.       Tag          Charge          X              Y              Z
 ---- ---------------- ---------- -------------- -------------- --------------
    1 O                    8.0000     0.00000000    -0.09026836     0.00000000
    2 H                    1.0000    -0.74287601     0.48338418    -0.00000000
    3 H                    1.0000     0.74287601     0.48338418    -0.00000000

      Atomic Mass 
      ----------- 

      O                 15.994910
      H                  1.007825


 Effective nuclear repulsion energy (a.u.)       9.3770184821

            Nuclear Dipole moment (a.u.) 
            ----------------------------
        X                 Y               Z
 ---------------- ---------------- ----------------
     0.0000000074     0.4622675610     0.0000000000

 ==============================================================================
                                internuclear distances
 ------------------------------------------------------------------------------
       center one      |      center two      | atomic units |  angstroms
 ------------------------------------------------------------------------------
    2 H                |   1 O                |     1.77367  |     0.93859
    3 H                |   1 O                |     1.77367  |     0.93859
 ------------------------------------------------------------------------------
                         number of included internuclear distances:          2
 ==============================================================================



 ==============================================================================
                                 internuclear angles
 ------------------------------------------------------------------------------
        center 1       |       center 2       |       center 3       |  degrees
 ------------------------------------------------------------------------------
    2 H                |   1 O                |   3 H                |   104.65
 ------------------------------------------------------------------------------
                            number of included internuclear angles:          1
 ==============================================================================




 Task  times  cpu:      905.6s     wall:      905.6s


                                NWChem Input Module
                                -------------------


 Summary of allocated global arrays
-----------------------------------
  No active global arrays



                         GA Statistics for process    0
                         ------------------------------

       create   destroy   get      put      acc     scatter   gather  read&inc
calls:    0        0        0        0        0        0        0        0     
number of processes/call 0.00e+00 0.00e+00 0.00e+00 0.00e+00 0.00e+00
bytes total:             0.00e+00 0.00e+00 0.00e+00 0.00e+00 0.00e+00 0.00e+00
bytes remote:            0.00e+00 0.00e+00 0.00e+00 0.00e+00 0.00e+00 0.00e+00
Max memory consumed for GA by this process: 0 bytes

MA_summarize_allocated_blocks: starting scan ...
MA_summarize_allocated_blocks: scan completed: 0 heap blocks, 0 stack blocks
MA usage statistics:

	allocation statistics:
					      heap	     stack
					      ----	     -----
	current number of blocks	         0	         0
	maximum number of blocks	       284	        21
	current total bytes		         0	         0
	maximum total bytes		 316273800	  88124712
	maximum total K-bytes		    316274	     88125
	maximum total M-bytes		       317	        89


                                     CITATION
                                     --------
                Please cite the following reference when publishing
                           results obtained with NWChem:

          E. Apr, E. J. Bylaska, W. A. de Jong, N. Govind, K. Kowalski,
       T. P. Straatsma, M. Valiev, H. J. J. van Dam, Y. Alexeev, J. Anchell,
       V. Anisimov, F. W. Aquino, R. Atta-Fynn, J. Autschbach, N. P. Bauman,
     J. C. Becca, D. E. Bernholdt, K. Bhaskaran-Nair, S. Bogatko, P. Borowski,
        J. Boschen, J. Brabec, A. Bruner, E. Caut, Y. Chen, G. N. Chuev,
      C. J. Cramer, J. Daily, M. J. O. Deegan, T. H. Dunning Jr., M. Dupuis,
   K. G. Dyall, G. I. Fann, S. A. Fischer, A. Fonari, H. Frchtl, L. Gagliardi,
      J. Garza, N. Gawande, S. Ghosh, K. Glaesemann, A. W. Gtz, J. Hammond,
       V. Helms, E. D. Hermes, K. Hirao, S. Hirata, M. Jacquelin, L. Jensen,
   B. G. Johnson, H. Jnsson, R. A. Kendall, M. Klemm, R. Kobayashi, V. Konkov,
      S. Krishnamoorthy, M. Krishnan, Z. Lin, R. D. Lins, R. J. Littlefield,
      A. J. Logsdail, K. Lopata, W. Ma, A. V. Marenich, J. Martin del Campo,
   D. Mejia-Rodriguez, J. E. Moore, J. M. Mullin, T. Nakajima, D. R. Nascimento,
    J. A. Nichols, P. J. Nichols, J. Nieplocha, A. Otero-de-la-Roza, B. Palmer,
    A. Panyala, T. Pirojsirikul, B. Peng, R. Peverati, J. Pittner, L. Pollack,
   R. M. Richard, P. Sadayappan, G. C. Schatz, W. A. Shelton, D. W. Silverstein,
   D. M. A. Smith, T. A. Soares, D. Song, M. Swart, H. L. Taylor, G. S. Thomas,
            V. Tipparaju, D. G. Truhlar, K. Tsemekhman, T. Van Voorhis,
     . Vzquez-Mayagoitia, P. Verma, O. Villa, A. Vishnu, K. D. Vogiatzis,
        D. Wang, J. H. Weare, M. J. Williamson, T. L. Windus, K. Woliski,
        A. T. Wong, Q. Wu, C. Yang, Q. Yu, M. Zacharias, Z. Zhang, Y. Zhao,
                                and R. J. Harrison
                        "NWChem: Past, present, and future
                         J. Chem. Phys. 152, 184102 (2020)
                               doi:10.1063/5.0004997

                                      AUTHORS
                                      -------
     E. Apra, E. J. Bylaska, N. Govind, K. Kowalski, M. Valiev, W. A. de Jong,
      T. P. Straatsma, H. J. J. van Dam, D. Wang, T. L. Windus, N. P. Bauman,
       A. Panyala, J. Hammond, J. Autschbach, K. Bhaskaran-Nair, J. Brabec,
    K. Lopata, S. A. Fischer, S. Krishnamoorthy, M. Jacquelin, W. Ma, M. Klemm,
       O. Villa, Y. Chen, V. Anisimov, F. Aquino, S. Hirata, M. T. Hackler,
           Eric Hermes, L. Jensen, J. E. Moore, J. C. Becca, V. Konjkov,
            D. Mejia-Rodriguez, T. Risthaus, M. Malagoli, A. Marenich,
   A. Otero-de-la-Roza, J. Mullin, P. Nichols, R. Peverati, J. Pittner, Y. Zhao,
        P.-D. Fan, A. Fonari, M. J. Williamson, R. J. Harrison, J. R. Rehr,
      M. Dupuis, D. Silverstein, D. M. A. Smith, J. Nieplocha, V. Tipparaju,
      M. Krishnan, B. E. Van Kuiken, A. Vazquez-Mayagoitia, M. Swart, Q. Wu,
   T. Van Voorhis, A. A. Auer, M. Nooijen, L. D. Crosby, E. Brown, G. Cisneros,
     G. I. Fann, H. Fruchtl, J. Garza, K. Hirao, R. A. Kendall, J. A. Nichols,
       K. Tsemekhman, K. Wolinski, J. Anchell, D. E. Bernholdt, P. Borowski,
       T. Clark, D. Clerc, H. Dachsel, M. J. O. Deegan, K. Dyall, D. Elwood,
      E. Glendening, M. Gutowski, A. C. Hess, J. Jaffe, B. G. Johnson, J. Ju,
        R. Kobayashi, R. Kutteh, Z. Lin, R. Littlefield, X. Long, B. Meng,
      T. Nakajima, S. Niu, L. Pollack, M. Rosing, K. Glaesemann, G. Sandrone,
      M. Stave, H. Taylor, G. Thomas, J. H. van Lenthe, A. T. Wong, Z. Zhang.

 Total times  cpu:     1308.8s     wall:     1308.8s
