 argument  1 = ./h3tr1.nw
                                         
                                         
 
 
              Northwest Computational Chemistry Package (NWChem) 4.0
              ------------------------------------------------------
 
 
                    Environmental Molecular Sciences Laboratory
                       Pacific Northwest National Laboratory
                                Richland, WA 99352
 
                                         
                                         
 
 
            COPYRIGHT (C) 1994, 1995, 1996, 1997, 1998, 1999, 2000, 2001
                        Pacific Northwest National Laboratory,
                             Battelle Memorial Institute.
 
                            >>> All Rights Reserved <<<
 
 
                                    DISCLAIMER
                                    ----------

            This material was prepared as an account of work sponsored
            by an agency of the United States Government.  Neither the
            United States Government nor the United States Department
            of Energy, nor Battelle, nor any of their employees, MAKES
            ANY WARRANTY, EXPRESS OR IMPLIED, OR ASSUMES ANY LEGAL
            LIABILITY OR RESPONSIBILITY FOR THE ACCURACY, COMPLETENESS,
            OR USEFULNESS OF ANY INFORMATION, APPARATUS, PRODUCT,
            SOFTWARE, OR PROCESS DISCLOSED, OR REPRESENTS THAT ITS USE
            WOULD NOT INFRINGE PRIVATELY OWNED RIGHTS.


                                    LIMITED USE
                                    -----------

            This software (including any documentation) is being made
            available to you for your internal use only, solely for use
            in performance of work directly for the U.S. Federal
            Government or work under contracts with the U.S. Department
            of Energy or other U.S. Federal Government agencies.  This
            software is a version which has not yet been evaluated and
            cleared for commercialization.  Adherence to this notice
            may be necessary for the author, Battelle Memorial
            Institute, to successfully assert copyright in and
            commercialize this software. This software is not intended
            for duplication or distribution to third parties without
            the permission of the Manager of Software Products at
            Pacific Northwest National Laboratory, Richland,
            Washington, 99352.


                                  ACKNOWLEDGMENT
                                  --------------

            This software and its documentation were produced with
            Government support under Contract Number DE-AC06-76RLO-1830
            awarded by the United States Department of Energy.  The
            Government retains a paid-up non-exclusive, irrevocable
            worldwide license to reproduce, prepare derivative works,
            perform publicly and display publicly by or for the
            Government, including the right to distribute to other
            Government contractors.


           Job information
           ---------------

    hostname      = pitb
    program       = /usr/users/windus/nwchem/bin/DECOSF/nwchem
    date          = Tue May  1 13:19:41 2001

    compiled      = Tue May  1 13:19:17 PDT 2001
    source        = /usr/users/windus/nwchem
    nwchem branch = Development
    input         = ./h3tr1.nw
    prefix        = h3.
    data base     = ./h3.db
    status        = startup
    nproc         =    1
    time left     =     -1s



           Memory information
           ------------------

    heap      =   47382524 doubles =    361.5 Mbytes
    stack     =   15794169 doubles =    120.5 Mbytes
    global    =   63176714 doubles =    482.0 Mbytes (within heap+stack)
    total     =   63176693 doubles =    482.0 Mbytes
    verify    = yes
    hardfail  = no 


           Directory information
           ---------------------
 
  0 permanent = .
  0 scratch   = .
 
 
 
 
                                NWChem Input Module
                                -------------------
 
 
                      Basis "ao basis" -> "" (cartesian)
                      -----
  h (Hydrogen)
  ------------
            Exponent  Coefficients 
       -------------- ---------------------------------------------------------
  1 S  5.44717800E+00  0.156285
  1 S  8.24547000E-01  0.904691
 
  2 S  1.83192000E-01  1.000000
 


 Summary of "ao basis" -> "" (cartesian)
 ------------------------------------------------------------------------------
       Tag                 Description            Shells   Functions and Types
 ---------------- ------------------------------  ------  ---------------------
 h                           3-21G                   2        2   2s




 DIRDYVTST - DiRect DYnamics for Variational Transition State Theory with the NWChem  electronic structure code

     This code prepares the file30 input for POLYRATE from electronic structure calculations of gradients
     hessians at the reactant, product, and saddle point geometries, and along the minimum energy path.
     Cartesian geometries for the reactants, products, and saddle points need to be input to this code;
     optimization for these geometries is not performed in the code.  Points along the minimum energy path
     are calculated here.

 Options, lgs=
   1 1 0 0 0 1 0 0 0 0 0 0 0 0 0 0 0 0 0 0 0 0 0 0 0 0 0 0 0 0 1 0 0 0 0 0 0 0 0

           Note that only lgs 1,2,6,8,27,31,38,39 are used.

     lgs( 1)= 1, saddle point; MEP started along unbound eigenvector
     lgs( 2)= 1, print frequencies and eigenvectors at save points along MEP
     lgs( 6)= 1,  2, reactants,  2, products
     lgs( 8)= 0, no restart
     lgs(27)= 0, use original direction of unbound eigenvector at saddle point
     lgs(31)= 1, MEP calculation uses euler integrator
     lgs(38)= 0, No electronic structure files saved
     lgs(39)= 0, No single point calculation  performed


 Title:
     Test run: H+H2 reaction, Euler integration, no restart                      


 Number of atoms =     3


 Masses
                                  amu             a.u.            kg
     Mass of atom  1           1.007825      1837.108749   1.673231E-27
     Mass of atom  2           1.007825      1837.108749   1.673231E-27
     Mass of atom  3           1.007825      1837.108749   1.673231E-27
     Forward reduced mass      0.671899      1224.768271   1.115514E-27


 Reactants

     Input geometry (cartesian coordinates in au)
      atom            x             y             z
        1          0.00000       0.00000       0.00000
        2          0.00000       0.00000       1.38861
        3          0.00000       0.00000     190.36121

     Species 1 consists of atom(s):    1  2
          icode=    3

     Species 2 consists of atom(s):    3
          icode=    1


 Products

     Input geometry (cartesian coordinates in au)
      atom            x             y             z
        1          0.00000       0.00000     190.36121
        2          0.00000       0.00000       1.38861
        3          0.00000       0.00000       0.00000

     Species 3 consists of atom(s):    2  3
          icode=    3

     Species 4 consists of atom(s):    1
          icode=    1


 Saddle point or starting geometry on MEP

     Input geometry (cartesian coordinates in au)
      atom            x             y             z
        1          0.00000       0.00000      -1.76532
        2          0.00000       0.00000       0.00000
        3          0.00000       0.00000       1.76532
          icode=    3

 Mass scaled coordinates, rotated so principle axes are aligned

     Reactants
      atom            x             y             z
        1          0.00000       0.00000     -78.28061
        2          0.00000       0.00000     -76.57993
        3          0.00000       0.00000     154.86054

     Products
      atom            x             y             z
        1          0.00000       0.00000    -154.86054
        2          0.00000       0.00000      76.57993
        3          0.00000       0.00000      78.28061

     Saddle point or starting geometry on MEP
      atom            x             y             z
        1          0.00000       0.00000      -2.16204
        2          0.00000       0.00000       0.00000
        3          0.00000       0.00000       2.16204


 Parameters for MEP calculation

     Step size, dels=  0.010000
     Interval for saving Hessian data, delsv =  0.050000
     Interval for computing Hessian data, delhss =  0.050000
     Path also stopped if s .gt.  0.500000 or s .lt. -0.500000


 ********** Reactants

 Geometry in mass-scaled cartesians (bohrs):

                 x               y               z
   1        0.000000E+00    0.000000E+00   -7.828061E+01
   2        0.000000E+00    0.000000E+00   -7.657993E+01
   3        0.000000E+00    0.000000E+00    1.548605E+02
 Symmetry group is C4V

 Potential energy=  -1.6191584449E+00 Hartree= -1.01604E+03 kcal/mol

 Derivatives in mass-scaled cartesians (au):
   1        0.000000E+00    0.000000E+00   -4.574978E-08
   2        0.000000E+00    0.000000E+00    4.574978E-08
   3        0.000000E+00    0.000000E+00    5.324826E-17

 Reactant species    1

 Eigenvalues and eigenvectors of hessian

                       m=       1            2            3            4            5            6
  Eigenvalues (au)=           0.551478     0.000000     0.000000     0.000000     0.000000     0.000000
  Frequencies (cm^-1)=     4657.164836     3.024441     3.024441     0.000066     0.000063    -0.000048
  Eigenvectors=
                        1     0.000000     0.707107     0.000000    -0.707107     0.000000     0.000000
                        2     0.000000     0.000000    -0.707107     0.000000     0.704361     0.062257
                        3     0.707107     0.000000     0.000000     0.000000     0.062257    -0.704361
                        4     0.000000    -0.707107     0.000000    -0.707107     0.000000     0.000000
                        5     0.000000     0.000000     0.707107     0.000000     0.704361     0.062257
                        6    -0.707107     0.000000     0.000000     0.000000     0.062257    -0.704361
  

 Reactant species    2 is an atom


 ********** Products

 Geometry in mass-scaled cartesians (bohrs):

                 x               y               z
   1        0.000000E+00    0.000000E+00   -1.548605E+02
   2        0.000000E+00    0.000000E+00    7.657993E+01
   3        0.000000E+00    0.000000E+00    7.828061E+01
 Symmetry group is C4V

 Potential energy=  -1.6191584449E+00 Hartree= -1.01604E+03 kcal/mol

 Derivatives in mass-scaled cartesians (au):
   1        0.000000E+00    0.000000E+00   -2.983319E-17
   2        0.000000E+00    0.000000E+00   -4.574978E-08
   3        0.000000E+00    0.000000E+00    4.574978E-08

 Product species     1

 Eigenvalues and eigenvectors of hessian

                       m=       1            2            3            4            5            6
  Eigenvalues (au)=           0.551478     0.000000     0.000000     0.000000     0.000000     0.000000
  Frequencies (cm^-1)=     4657.164836     3.024441     3.024441     0.000066    -0.000046    -0.000046
  Eigenvectors=
                        1     0.000000     0.000000     0.707107     0.000000     0.000000     0.707107
                        2     0.000000     0.707107     0.000000     0.000000    -0.707107     0.000000
                        3     0.707107     0.000000     0.000000     0.707107     0.000000     0.000000
                        4     0.000000     0.000000    -0.707107     0.000000     0.000000     0.707107
                        5     0.000000    -0.707107     0.000000     0.000000    -0.707107     0.000000
                        6    -0.707107     0.000000     0.000000     0.707107     0.000000     0.000000
  

 Product species     2 is an atom


 ********** Saddle point or starting point

 Geometry in mass-scaled cartesians (bohrs):

                 x               y               z
   1        0.000000E+00    0.000000E+00   -2.162041E+00
   2        0.000000E+00    0.000000E+00    0.000000E+00
   3        0.000000E+00    0.000000E+00    2.162041E+00
 Symmetry group is D4H

 Potential energy=  -1.5920744789E+00 Hartree= -9.99042E+02 kcal/mol

 Derivatives in mass-scaled cartesians (au):
   1        0.000000E+00    0.000000E+00   -2.372509E-08
   2        0.000000E+00    0.000000E+00    0.000000E+00
   3        0.000000E+00    0.000000E+00    2.372509E-08

 Eigenvalues and eigenvectors of hessian

                       m=       1            2            3            4            5            6
  Eigenvalues (au)=           0.107367     0.031975     0.031975    -0.133577     0.000000     0.000000
  Frequencies (cm^-1)=     2054.905320  1121.409344  1121.409344 -2292.042610     1.008024     1.008024
  Eigenvectors=
                        1     0.000000     0.375428    -0.160376     0.000000    -0.629221     0.322616
                        2     0.000000     0.160376     0.375428     0.000000    -0.322616    -0.629221
                        3    -0.707107     0.000000     0.000000    -0.408249     0.000000     0.000000
                        4     0.000000    -0.750856     0.320753     0.000000     0.000000     0.000000
                        5     0.000000    -0.320753    -0.750856     0.000000     0.000000     0.000000
                        6     0.000000     0.000000     0.000000     0.816496     0.000000     0.000000
                        7     0.000000     0.375428    -0.160376     0.000000     0.629221    -0.322616
                        8     0.000000     0.160376     0.375428     0.000000     0.322616     0.629221
                        9     0.707107     0.000000     0.000000    -0.408249     0.000000     0.000000
  

                       m=       7            8            9
  Eigenvalues (au)=           0.000000     0.000000     0.000000
  Frequencies (cm^-1)=        0.298404     0.298404     2.280222
  Eigenvectors=
                        1    -0.345859     0.462293     0.000000
                        2     0.462293     0.345859     0.000000
                        3     0.000000     0.000000     0.577350
                        4    -0.345859     0.462293     0.000000
                        5     0.462293     0.345859     0.000000
                        6     0.000000     0.000000     0.577351
                        7    -0.345859     0.462293     0.000000
                        8     0.462293     0.345859     0.000000
                        9     0.000000     0.000000     0.577350
  


 Set up to take first step off saddle point

 Vector for initial step off saddle point=
                                     0.0000   0.0000  -0.4082   0.0000   0.0000   0.8165   0.0000   0.0000  -0.4082


 ********** Calculate points along reaction path

      dels=          1.00000E-02
      delsv=         5.00000E-02
      delhss=        5.00000E-02
      dir=           1.00000E+00
      slm=          -5.00000E-01
      slp=           5.00000E-01

 Path followed using Euler integrator

 Take step from saddle point in reactant direction

  All quantities in atomic units, x is vector of mass-weighted coordinates,
  dx is the normalized mass-weighted gradient vector, and |dV/x| is the magnitude of the gradient
         s       V,|dV/dx|
        0.00000  2.70840E-02    x=   0.0000   0.0000  -2.1620   0.0000   0.0000   0.0000   0.0000   0.0000   2.1620
                 0.00000E+00   dx=   0.0000   0.0000  -0.4082   0.0000   0.0000   0.8165   0.0000   0.0000  -0.4082
 Symmetry group is C4V
       -0.01000  2.70773E-02    x=   0.0000   0.0000  -2.1580   0.0000   0.0000  -0.0082   0.0000   0.0000   2.1661
                 1.33475E-03   dx=   0.0000   0.0000  -0.3973   0.0000   0.0000   0.8164   0.0000   0.0000  -0.4191
 Symmetry group is C4V
       -0.02000  2.70573E-02    x=   0.0000   0.0000  -2.1540   0.0000   0.0000  -0.0163   0.0000   0.0000   2.1703
                 2.66371E-03   dx=   0.0000   0.0000  -0.3907   0.0000   0.0000   0.8162   0.0000   0.0000  -0.4255
 Symmetry group is C4V
       -0.03000  2.70241E-02    x=   0.0000   0.0000  -2.1501   0.0000   0.0000  -0.0245   0.0000   0.0000   2.1746
                 3.98127E-03   dx=   0.0000   0.0000  -0.3828   0.0000   0.0000   0.8160   0.0000   0.0000  -0.4331
 Symmetry group is C4V
       -0.04000  2.69777E-02    x=   0.0000   0.0000  -2.1462   0.0000   0.0000  -0.0327   0.0000   0.0000   2.1789
                 5.28180E-03   dx=   0.0000   0.0000  -0.3748   0.0000   0.0000   0.8156   0.0000   0.0000  -0.4409
 Symmetry group is C4V
       -0.05000  2.69185E-02    x=   0.0000   0.0000  -2.1425   0.0000   0.0000  -0.0408   0.0000   0.0000   2.1833
                 6.55986E-03   dx=   0.0000   0.0000  -0.3665   0.0000   0.0000   0.8151   0.0000   0.0000  -0.4486

 Eigenvalues and eigenvectors of hessian

                       m=       1            2            3            4            5            6
  Eigenvalues (au)=           0.110102     0.031662    -0.126730     0.000000     0.000000     0.000000
  Frequencies (cm^-1)=     2080.917397  1115.896409 -2232.526722    -0.000007    -0.000011    -0.252961
  Eigenvectors=
                        1     0.000000    -0.088692     0.000000    -0.695707     0.080449    -0.180334
                        2     0.000000     0.410269     0.000000    -0.080449    -0.695707    -0.548464
                        3     0.740036     0.000000     0.345105     0.000000     0.000000     0.000000
                        4     0.000000     0.172502     0.000000    -0.013251     0.001532    -0.180334
                        5     0.000000    -0.797955     0.000000    -0.001532    -0.013251    -0.548464
                        6    -0.071161     0.000000    -0.813325     0.000000     0.000000     0.000000
                        7     0.000000    -0.083810     0.000000     0.708958    -0.081981    -0.180334
                        8     0.000000     0.387686     0.000000     0.081981     0.708958    -0.548464
                        9    -0.668792     0.000000     0.468407     0.000000     0.000000     0.000000
  

                       m=       7            8            9
  Eigenvalues (au)=           0.000000    -0.000060     0.031662
  Frequencies (cm^-1)=       -0.252961   -48.665255  1115.896409
  Eigenvectors=
                        1    -0.548464     0.000000     0.410269
                        2     0.180334     0.000000     0.088692
                        3     0.000000    -0.577277     0.000000
                        4    -0.548464     0.000000    -0.797955
                        5     0.180334     0.000000    -0.172502
                        6     0.000000    -0.577441     0.000000
                        7    -0.548464     0.000000     0.387686
                        8     0.180334     0.000000     0.083810
                        9     0.000000    -0.577332     0.000000
  
 Symmetry group is C4V
       -0.06000  2.68466E-02    x=   0.0000   0.0000  -2.1388   0.0000   0.0000  -0.0490   0.0000   0.0000   2.1878
                 7.81019E-03   dx=   0.0000   0.0000  -0.3580   0.0000   0.0000   0.8145   0.0000   0.0000  -0.4565
 Symmetry group is C4V
       -0.07000  2.67624E-02    x=   0.0000   0.0000  -2.1353   0.0000   0.0000  -0.0571   0.0000   0.0000   2.1924
                 9.02771E-03   dx=   0.0000   0.0000  -0.3493   0.0000   0.0000   0.8138   0.0000   0.0000  -0.4645
 Symmetry group is C4V
       -0.08000  2.66662E-02    x=   0.0000   0.0000  -2.1318   0.0000   0.0000  -0.0652   0.0000   0.0000   2.1970
                 1.02076E-02   dx=   0.0000   0.0000  -0.3403   0.0000   0.0000   0.8129   0.0000   0.0000  -0.4726
 Symmetry group is C4V
       -0.09000  2.65584E-02    x=   0.0000   0.0000  -2.1284   0.0000   0.0000  -0.0734   0.0000   0.0000   2.2017
                 1.13455E-02   dx=   0.0000   0.0000  -0.3310   0.0000   0.0000   0.8119   0.0000   0.0000  -0.4809
 Symmetry group is C4V
       -0.10000  2.64394E-02    x=   0.0000   0.0000  -2.1251   0.0000   0.0000  -0.0815   0.0000   0.0000   2.2065
                 1.24370E-02   dx=   0.0000   0.0000  -0.3214   0.0000   0.0000   0.8107   0.0000   0.0000  -0.4893

 Eigenvalues and eigenvectors of hessian

                       m=       1            2            3            4            5            6
  Eigenvalues (au)=           0.118851     0.030708    -0.107821     0.000000     0.000000     0.000000
  Frequencies (cm^-1)=     2162.019620  1098.954652 -2059.252270    -0.000011    -0.000013    -0.352008
  Eigenvectors=
                        1     0.000000    -0.101674     0.000000     0.174127    -0.671218     0.387385
                        2     0.000000     0.418898     0.000000    -0.671218    -0.174127     0.428096
                        3     0.770880     0.000000    -0.269443     0.000000     0.000000     0.000000
                        4     0.000000     0.192485     0.000000     0.006677    -0.025739     0.387385
                        5     0.000000    -0.793038     0.000000    -0.025739    -0.006677     0.428096
                        6    -0.152026     0.000000     0.802118     0.000000     0.000000     0.000000
                        7     0.000000    -0.090811     0.000000    -0.180804     0.696957     0.387385
                        8     0.000000     0.374140     0.000000     0.696957     0.180804     0.428096
                        9    -0.618572     0.000000    -0.532923     0.000000     0.000000     0.000000
  

                       m=       7            8            9
  Eigenvalues (au)=           0.000000    -0.000122     0.030708
  Frequencies (cm^-1)=       -0.352008   -69.403844  1098.954652
  Eigenvectors=
                        1    -0.428096     0.000000     0.418898
                        2     0.387385     0.000000     0.101674
                        3     0.000000    -0.577186     0.000000
                        4    -0.428096     0.000000    -0.793038
                        5     0.387385     0.000000    -0.192485
                        6     0.000000    -0.577490     0.000000
                        7    -0.428096     0.000000     0.374140
                        8     0.387385     0.000000     0.090811
                        9     0.000000    -0.577374     0.000000
  
 Symmetry group is C4V
       -0.11000  2.63098E-02    x=   0.0000   0.0000  -2.1218   0.0000   0.0000  -0.0896   0.0000   0.0000   2.2114
                 1.34783E-02   dx=   0.0000   0.0000  -0.3114   0.0000   0.0000   0.8094   0.0000   0.0000  -0.4979
 Symmetry group is C4V
       -0.12000  2.61701E-02    x=   0.0000   0.0000  -2.1187   0.0000   0.0000  -0.0977   0.0000   0.0000   2.2164
                 1.44661E-02   dx=   0.0000   0.0000  -0.3011   0.0000   0.0000   0.8078   0.0000   0.0000  -0.5067
 Symmetry group is C4V
       -0.13000  2.60207E-02    x=   0.0000   0.0000  -2.1157   0.0000   0.0000  -0.1058   0.0000   0.0000   2.2215
                 1.53974E-02   dx=   0.0000   0.0000  -0.2903   0.0000   0.0000   0.8060   0.0000   0.0000  -0.5158
 Symmetry group is C4V
       -0.14000  2.58623E-02    x=   0.0000   0.0000  -2.1128   0.0000   0.0000  -0.1138   0.0000   0.0000   2.2266
                 1.62697E-02   dx=   0.0000   0.0000  -0.2790   0.0000   0.0000   0.8040   0.0000   0.0000  -0.5251
 Symmetry group is C4V
       -0.15000  2.56955E-02    x=   0.0000   0.0000  -2.1100   0.0000   0.0000  -0.1219   0.0000   0.0000   2.2319
                 1.70810E-02   dx=   0.0000   0.0000  -0.2672   0.0000   0.0000   0.8018   0.0000   0.0000  -0.5346

 Eigenvalues and eigenvectors of hessian

                       m=       1            2            3            4            5            6
  Eigenvalues (au)=           0.135397     0.029043    -0.081262     0.000000     0.000000     0.000000
  Frequencies (cm^-1)=     2307.606644  1068.745963 -1787.722754     0.000013     0.000004    -0.419844
  Eigenvectors=
                        1     0.000000     0.373332     0.000000     0.655751     0.202983    -0.546825
                        2     0.000000     0.236808     0.000000     0.202983    -0.655751    -0.185244
                        3     0.798033     0.000000    -0.173220     0.000000     0.000000     0.000000
                        4     0.000000    -0.688674     0.000000     0.037875     0.011724    -0.546826
                        5     0.000000    -0.436833     0.000000     0.011724    -0.037875    -0.185244
                        6    -0.248976     0.000000     0.777449     0.000000     0.000000     0.000000
                        7     0.000000     0.315342     0.000000    -0.693626    -0.214707    -0.546825
                        8     0.000000     0.200025     0.000000    -0.214707     0.693626    -0.185244
                        9    -0.548776     0.000000    -0.604622     0.000000     0.000000     0.000000
  

                       m=       7            8            9
  Eigenvalues (au)=           0.000000    -0.000141     0.029043
  Frequencies (cm^-1)=       -0.419844   -74.407068  1068.745963
  Eigenvectors=
                        1    -0.185244     0.000000     0.236808
                        2     0.546825     0.000000    -0.373332
                        3     0.000000    -0.577181     0.000000
                        4    -0.185244     0.000000    -0.436833
                        5     0.546826     0.000000     0.688674
                        6     0.000000    -0.577567     0.000000
                        7    -0.185244     0.000000     0.200025
                        8     0.546825     0.000000    -0.315342
                        9     0.000000    -0.577302     0.000000
  
 Symmetry group is C4V
       -0.16000  2.55209E-02    x=   0.0000   0.0000  -2.1073   0.0000   0.0000  -0.1299   0.0000   0.0000   2.2372
                 1.78298E-02   dx=   0.0000   0.0000  -0.2548   0.0000   0.0000   0.7992   0.0000   0.0000  -0.5444
 Symmetry group is C4V
       -0.17000  2.53391E-02    x=   0.0000   0.0000  -2.1048   0.0000   0.0000  -0.1379   0.0000   0.0000   2.2427
                 1.85154E-02   dx=   0.0000   0.0000  -0.2419   0.0000   0.0000   0.7963   0.0000   0.0000  -0.5544
 Symmetry group is C4V
       -0.18000  2.51508E-02    x=   0.0000   0.0000  -2.1024   0.0000   0.0000  -0.1458   0.0000   0.0000   2.2482
                 1.91372E-02   dx=   0.0000   0.0000  -0.2284   0.0000   0.0000   0.7931   0.0000   0.0000  -0.5647
 Symmetry group is C4V
       -0.19000  2.49566E-02    x=   0.0000   0.0000  -2.1001   0.0000   0.0000  -0.1538   0.0000   0.0000   2.2539
                 1.96957E-02   dx=   0.0000   0.0000  -0.2142   0.0000   0.0000   0.7894   0.0000   0.0000  -0.5752
 Symmetry group is C4V
       -0.20000  2.47571E-02    x=   0.0000   0.0000  -2.0980   0.0000   0.0000  -0.1617   0.0000   0.0000   2.2596
                 2.01917E-02   dx=   0.0000   0.0000  -0.1994   0.0000   0.0000   0.7854   0.0000   0.0000  -0.5860

 Eigenvalues and eigenvectors of hessian

                       m=       1            2            3            4            5            6
  Eigenvalues (au)=           0.162001     0.026616    -0.053449     0.000005     0.000000     0.000000
  Frequencies (cm^-1)=     2524.153062  1023.128509 -1449.864016    14.141941     0.000028     0.000017
  Eigenvectors=
                        1     0.000000     0.095306     0.000000     0.000000    -0.053244    -0.677382
                        2     0.000000     0.442608     0.000000     0.000000    -0.677382     0.053244
                        3     0.814459     0.000000    -0.057586    -0.577356     0.000000     0.000000
                        4     0.000000    -0.171522     0.000000     0.000000    -0.004103    -0.052199
                        5     0.000000    -0.796558     0.000000     0.000000    -0.052199     0.004103
                        6    -0.357358     0.000000     0.734148    -0.577340     0.000000     0.000000
                        7     0.000000     0.076216     0.000000     0.000000     0.057347     0.729581
                        8     0.000000     0.353951     0.000000     0.000000     0.729581    -0.057347
                        9    -0.457112     0.000000    -0.676543    -0.577355     0.000000     0.000000
  

                       m=       7            8            9
  Eigenvalues (au)=           0.000000     0.000000     0.026616
  Frequencies (cm^-1)=       -0.466909    -0.466909  1023.128509
  Eigenvectors=
                        1    -0.010374     0.577257     0.442608
                        2     0.577257     0.010374    -0.095306
                        3     0.000000     0.000000     0.000000
                        4    -0.010374     0.577257    -0.796558
                        5     0.577257     0.010374     0.171522
                        6     0.000000     0.000000     0.000000
                        7    -0.010374     0.577257     0.353951
                        8     0.577257     0.010374    -0.076216
                        9     0.000000     0.000000     0.000000
  
 Symmetry group is C4V
       -0.21000  2.45530E-02    x=   0.0000   0.0000  -2.0960   0.0000   0.0000  -0.1695   0.0000   0.0000   2.2655
                 2.06267E-02   dx=   0.0000   0.0000  -0.1839   0.0000   0.0000   0.7809   0.0000   0.0000  -0.5970
 Symmetry group is C4V
       -0.22000  2.43448E-02    x=   0.0000   0.0000  -2.0941   0.0000   0.0000  -0.1773   0.0000   0.0000   2.2715
                 2.10028E-02   dx=   0.0000   0.0000  -0.1677   0.0000   0.0000   0.7759   0.0000   0.0000  -0.6082
 Symmetry group is C4V
       -0.23000  2.41331E-02    x=   0.0000   0.0000  -2.0924   0.0000   0.0000  -0.1851   0.0000   0.0000   2.2775
                 2.13224E-02   dx=   0.0000   0.0000  -0.1509   0.0000   0.0000   0.7704   0.0000   0.0000  -0.6195
 Symmetry group is C4V
       -0.24000  2.39185E-02    x=   0.0000   0.0000  -2.0909   0.0000   0.0000  -0.1928   0.0000   0.0000   2.2837
                 2.15886E-02   dx=   0.0000   0.0000  -0.1334   0.0000   0.0000   0.7643   0.0000   0.0000  -0.6309
 Symmetry group is C4V
       -0.25000  2.37015E-02    x=   0.0000   0.0000  -2.0896   0.0000   0.0000  -0.2004   0.0000   0.0000   2.2900
                 2.18050E-02   dx=   0.0000   0.0000  -0.1152   0.0000   0.0000   0.7576   0.0000   0.0000  -0.6424

 Eigenvalues and eigenvectors of hessian

                       m=       1            2            3            4            5            6
  Eigenvalues (au)=           0.199195     0.023486    -0.030119     0.000006     0.000000     0.000000
  Frequencies (cm^-1)=     2798.960996   961.080789 -1088.369517    15.527917     0.000027     0.000015
  Eigenvectors=
                        1     0.000000     0.460042     0.000000     0.000000    -0.074750     0.668470
                        2     0.000000    -0.050881     0.000000     0.000000    -0.668470    -0.074750
                        3     0.814362     0.000000     0.058991     0.577352     0.000000     0.000000
                        4     0.000000    -0.809010     0.000000     0.000000    -0.007170     0.064120
                        5     0.000000     0.089478     0.000000     0.000000    -0.064120    -0.007170
                        6    -0.458256     0.000000     0.675793     0.577326     0.000000     0.000000
                        7     0.000000     0.348968     0.000000     0.000000     0.081921    -0.732589
                        8     0.000000    -0.038596     0.000000     0.000000     0.732589     0.081921
                        9    -0.356113     0.000000    -0.734727     0.577373     0.000000     0.000000
  

                       m=       7            8            9
  Eigenvalues (au)=           0.000000     0.000000     0.023486
  Frequencies (cm^-1)=       -0.497718    -0.497718   961.080789
  Eigenvectors=
                        1     0.010073    -0.577262     0.050881
                        2     0.577262     0.010073     0.460042
                        3     0.000000     0.000000     0.000000
                        4     0.010073    -0.577263    -0.089478
                        5     0.577263     0.010073    -0.809010
                        6     0.000000     0.000000     0.000000
                        7     0.010073    -0.577262     0.038596
                        8     0.577262     0.010073     0.348968
                        9     0.000000     0.000000     0.000000
  
 Symmetry group is C4V
       -0.26000  2.34826E-02    x=   0.0000   0.0000  -2.0885   0.0000   0.0000  -0.2080   0.0000   0.0000   2.2965
                 2.19752E-02   dx=   0.0000   0.0000  -0.0965   0.0000   0.0000   0.7504   0.0000   0.0000  -0.6539
 Symmetry group is C4V
       -0.27000  2.32622E-02    x=   0.0000   0.0000  -2.0875   0.0000   0.0000  -0.2155   0.0000   0.0000   2.3030
                 2.21037E-02   dx=   0.0000   0.0000  -0.0773   0.0000   0.0000   0.7426   0.0000   0.0000  -0.6653
 Symmetry group is C4V
       -0.28000  2.30407E-02    x=   0.0000   0.0000  -2.0867   0.0000   0.0000  -0.2229   0.0000   0.0000   2.3097
                 2.21945E-02   dx=   0.0000   0.0000  -0.0576   0.0000   0.0000   0.7341   0.0000   0.0000  -0.6766
 Symmetry group is C4V
       -0.29000  2.28184E-02    x=   0.0000   0.0000  -2.0861   0.0000   0.0000  -0.2303   0.0000   0.0000   2.3164
                 2.22522E-02   dx=   0.0000   0.0000  -0.0375   0.0000   0.0000   0.7251   0.0000   0.0000  -0.6876
 Symmetry group is C4V
       -0.30000  2.25958E-02    x=   0.0000   0.0000  -2.0858   0.0000   0.0000  -0.2375   0.0000   0.0000   2.3233
                 2.22809E-02   dx=   0.0000   0.0000  -0.0172   0.0000   0.0000   0.7156   0.0000   0.0000  -0.6983

 Eigenvalues and eigenvectors of hessian

                       m=       1            2            3            4            5            6
  Eigenvalues (au)=           0.243468     0.019897     0.019897     0.000000     0.000000     0.000000
  Frequencies (cm^-1)=     3094.415219   884.608673   884.608673     0.000012    -0.000031    -0.514347
  Eigenvectors=
                        1     0.000000     0.452746    -0.134067    -0.665954     0.014780     0.575494
                        2     0.000000     0.134067     0.452746    -0.014780    -0.665954    -0.046260
                        3     0.801768     0.000000     0.000000     0.000000     0.000000     0.000000
                        4     0.000000    -0.779507     0.230827    -0.075841     0.001683     0.575494
                        5     0.000000    -0.230827    -0.779507    -0.001683    -0.075841    -0.046260
                        6    -0.534654     0.000000     0.000000     0.000000     0.000000     0.000000
                        7     0.000000     0.326761    -0.096760     0.741796    -0.016463     0.575494
                        8     0.000000     0.096760     0.326761     0.016463     0.741796    -0.046260
                        9    -0.267045     0.000000     0.000000     0.000000     0.000000     0.000000
  

                       m=       7            8            9
  Eigenvalues (au)=           0.000000    -0.000101    -0.013548
  Frequencies (cm^-1)=       -0.514347   -63.118724  -729.965452
  Eigenvectors=
                        1     0.046260     0.000000     0.000000
                        2     0.575494     0.000000     0.000000
                        3     0.000000    -0.577529     0.153716
                        4     0.046260     0.000000     0.000000
                        5     0.575494     0.000000     0.000000
                        6     0.000000    -0.578213     0.616291
                        7     0.046260     0.000000     0.000000
                        8     0.575494     0.000000     0.000000
                        9     0.000000    -0.576307    -0.772371
  
 Symmetry group is C4V
       -0.31000  2.23729E-02    x=   0.0000   0.0000  -2.0856   0.0000   0.0000  -0.2447   0.0000   0.0000   2.3303
                 2.22850E-02   dx=   0.0000   0.0000   0.0032   0.0000   0.0000   0.7055   0.0000   0.0000  -0.7087
 Symmetry group is C4V
       -0.32000  2.21502E-02    x=   0.0000   0.0000  -2.0856   0.0000   0.0000  -0.2517   0.0000   0.0000   2.3374
                 2.22683E-02   dx=   0.0000   0.0000   0.0237   0.0000   0.0000   0.6950   0.0000   0.0000  -0.7186
 Symmetry group is C4V
       -0.33000  2.19276E-02    x=   0.0000   0.0000  -2.0859   0.0000   0.0000  -0.2587   0.0000   0.0000   2.3446
                 2.22344E-02   dx=   0.0000   0.0000   0.0440   0.0000   0.0000   0.6841   0.0000   0.0000  -0.7281
 Symmetry group is C4V
       -0.34000  2.17055E-02    x=   0.0000   0.0000  -2.0863   0.0000   0.0000  -0.2655   0.0000   0.0000   2.3518
                 2.21866E-02   dx=   0.0000   0.0000   0.0640   0.0000   0.0000   0.6729   0.0000   0.0000  -0.7369
 Symmetry group is C4V
       -0.35000  2.14840E-02    x=   0.0000   0.0000  -2.0869   0.0000   0.0000  -0.2723   0.0000   0.0000   2.3592
                 2.21275E-02   dx=   0.0000   0.0000   0.0836   0.0000   0.0000   0.6616   0.0000   0.0000  -0.7452

 Eigenvalues and eigenvectors of hessian

                       m=       1            2            3            4            5            6
  Eigenvalues (au)=           0.288604     0.016271     0.016271     0.000000     0.000000     0.000000
  Frequencies (cm^-1)=     3369.057527   799.956804   799.956804    -0.000011    -0.000017    -0.519689
  Eigenvectors=
                        1     0.000000     0.480552     0.000012    -0.658981     0.038487     0.495727
                        2     0.000000    -0.000012     0.480552    -0.038487    -0.658981     0.295953
                        3     0.785714     0.000000     0.000000     0.000000     0.000000     0.000000
                        4     0.000000    -0.811942    -0.000020    -0.085972     0.005021     0.495727
                        5     0.000000     0.000020    -0.811942    -0.005021    -0.085972     0.295953
                        6    -0.585207     0.000000     0.000000     0.000000     0.000000     0.000000
                        7     0.000000     0.331391     0.000008     0.744952    -0.043508     0.495727
                        8     0.000000    -0.000008     0.331391     0.043508     0.744952     0.295953
                        9    -0.200468     0.000000     0.000000     0.000000     0.000000     0.000000
  

                       m=       7            8            9
  Eigenvalues (au)=           0.000000    -0.000085    -0.002851
  Frequencies (cm^-1)=       -0.519689   -57.869277  -334.872507
  Eigenvectors=
                        1    -0.295953     0.000000     0.000000
                        2     0.495727     0.000000     0.000000
                        3     0.000000    -0.578616     0.218764
                        4    -0.295953     0.000000     0.000000
                        5     0.495727     0.000000     0.000000
                        6     0.000000    -0.580669     0.566001
                        7    -0.295953     0.000000     0.000000
                        8     0.495727     0.000000     0.000000
                        9     0.000000    -0.572737    -0.794849
  
 Symmetry group is C4V
       -0.36000  2.12630E-02    x=   0.0000   0.0000  -2.0878   0.0000   0.0000  -0.2789   0.0000   0.0000   2.3667
                 2.20595E-02   dx=   0.0000   0.0000   0.1027   0.0000   0.0000   0.6501   0.0000   0.0000  -0.7528
 Symmetry group is C4V
       -0.37000  2.10428E-02    x=   0.0000   0.0000  -2.0888   0.0000   0.0000  -0.2854   0.0000   0.0000   2.3742
                 2.19847E-02   dx=   0.0000   0.0000   0.1211   0.0000   0.0000   0.6387   0.0000   0.0000  -0.7598
 Symmetry group is C4V
       -0.38000  2.08234E-02    x=   0.0000   0.0000  -2.0900   0.0000   0.0000  -0.2918   0.0000   0.0000   2.3818
                 2.19044E-02   dx=   0.0000   0.0000   0.1388   0.0000   0.0000   0.6274   0.0000   0.0000  -0.7662
 Symmetry group is C4V
       -0.39000  2.06048E-02    x=   0.0000   0.0000  -2.0914   0.0000   0.0000  -0.2980   0.0000   0.0000   2.3894
                 2.18196E-02   dx=   0.0000   0.0000   0.1557   0.0000   0.0000   0.6162   0.0000   0.0000  -0.7720
 Symmetry group is C4V
       -0.40000  2.03870E-02    x=   0.0000   0.0000  -2.0930   0.0000   0.0000  -0.3042   0.0000   0.0000   2.3972
                 2.17313E-02   dx=   0.0000   0.0000   0.1718   0.0000   0.0000   0.6054   0.0000   0.0000  -0.7772

 Eigenvalues and eigenvectors of hessian

                       m=       1            2            3            4            5            6
  Eigenvalues (au)=           0.329425     0.013033     0.013033     0.003805     0.000000     0.000000
  Frequencies (cm^-1)=     3599.444619   715.936360   715.936360   386.854600     0.000017     0.000013
  Eigenvectors=
                        1     0.000000     0.015655    -0.487626     0.000000     0.028365    -0.654093
                        2     0.000000     0.487626     0.015655     0.000000    -0.654093    -0.028365
                        3     0.771489     0.000000     0.000000     0.269434     0.000000     0.000000
                        4     0.000000    -0.026021     0.810515     0.000000     0.004123    -0.095071
                        5     0.000000    -0.810515    -0.026021     0.000000    -0.095071    -0.004123
                        6    -0.617276     0.000000     0.000000     0.536508     0.000000     0.000000
                        7     0.000000     0.010366    -0.322889     0.000000    -0.032488     0.749164
                        8     0.000000     0.322889     0.010366     0.000000     0.749164     0.032488
                        9    -0.154188     0.000000     0.000000    -0.799728     0.000000     0.000000
  

                       m=       7            8            9
  Eigenvalues (au)=           0.000000     0.000000    -0.000072
  Frequencies (cm^-1)=       -0.516416    -0.516416   -53.220794
  Eigenvectors=
                        1     0.169166    -0.552011     0.000000
                        2    -0.552011    -0.169166     0.000000
                        3     0.000000     0.000000     0.576376
                        4     0.169166    -0.552011     0.000000
                        5    -0.552011    -0.169166     0.000000
                        6     0.000000     0.000000     0.575438
                        7     0.169166    -0.552011     0.000000
                        8    -0.552011    -0.169166     0.000000
                        9     0.000000     0.000000     0.580225
  
 Symmetry group is C4V
       -0.41000  2.01702E-02    x=   0.0000   0.0000  -2.0947   0.0000   0.0000  -0.3103   0.0000   0.0000   2.4049
                 2.16399E-02   dx=   0.0000   0.0000   0.1869   0.0000   0.0000   0.5949   0.0000   0.0000  -0.7818
 Symmetry group is C4V
       -0.42000  1.99542E-02    x=   0.0000   0.0000  -2.0965   0.0000   0.0000  -0.3162   0.0000   0.0000   2.4128
                 2.15457E-02   dx=   0.0000   0.0000   0.2011   0.0000   0.0000   0.5848   0.0000   0.0000  -0.7859
 Symmetry group is C4V
       -0.43000  1.97393E-02    x=   0.0000   0.0000  -2.0986   0.0000   0.0000  -0.3221   0.0000   0.0000   2.4206
                 2.14490E-02   dx=   0.0000   0.0000   0.2144   0.0000   0.0000   0.5751   0.0000   0.0000  -0.7895
 Symmetry group is C4V
       -0.44000  1.95253E-02    x=   0.0000   0.0000  -2.1007   0.0000   0.0000  -0.3278   0.0000   0.0000   2.4285
                 2.13498E-02   dx=   0.0000   0.0000   0.2267   0.0000   0.0000   0.5659   0.0000   0.0000  -0.7927
 Symmetry group is C4V
       -0.45000  1.93123E-02    x=   0.0000   0.0000  -2.1030   0.0000   0.0000  -0.3335   0.0000   0.0000   2.4364
                 2.12481E-02   dx=   0.0000   0.0000   0.2382   0.0000   0.0000   0.5572   0.0000   0.0000  -0.7955

 Eigenvalues and eigenvectors of hessian

                       m=       1            2            3            4            5            6
  Eigenvalues (au)=           0.363760     0.010403     0.010403     0.007960     0.000000     0.000000
  Frequencies (cm^-1)=     3782.376469   639.627889   639.627889   559.530708     0.000008    -0.000035
  Eigenvectors=
                        1     0.000000    -0.493703     0.022907     0.000000    -0.649911    -0.003872
                        2     0.000000     0.022907     0.493703     0.000000     0.003872    -0.649911
                        3     0.760220     0.000000     0.000000     0.298759     0.000000     0.000000
                        4     0.000000     0.809096    -0.037540     0.000000    -0.103056    -0.000614
                        5     0.000000    -0.037540    -0.809096     0.000000     0.000614    -0.103056
                        6    -0.638086     0.000000     0.000000     0.510282     0.000000     0.000000
                        7     0.000000    -0.315393     0.014633     0.000000     0.752967     0.004486
                        8     0.000000     0.014633     0.315393     0.000000    -0.004486     0.752967
                        9    -0.122118     0.000000     0.000000    -0.806446     0.000000     0.000000
  

                       m=       7            8            9
  Eigenvalues (au)=           0.000000     0.000000    -0.000061
  Frequencies (cm^-1)=       -0.507181    -0.507181   -49.128103
  Eigenvectors=
                        1     0.577066     0.018108     0.000000
                        2    -0.018108     0.577066     0.000000
                        3     0.000000     0.000000     0.576896
                        4     0.577066     0.018108     0.000000
                        5    -0.018108     0.577066     0.000000
                        6     0.000000     0.000000     0.576593
                        7     0.577066     0.018108     0.000000
                        8    -0.018108     0.577066     0.000000
                        9     0.000000     0.000000     0.578560
  
 Symmetry group is C4V
       -0.46000  1.91003E-02    x=   0.0000   0.0000  -2.1053   0.0000   0.0000  -0.3390   0.0000   0.0000   2.4444
                 2.11439E-02   dx=   0.0000   0.0000   0.2488   0.0000   0.0000   0.5491   0.0000   0.0000  -0.7979
 Symmetry group is C4V
       -0.47000  1.88894E-02    x=   0.0000   0.0000  -2.1078   0.0000   0.0000  -0.3445   0.0000   0.0000   2.4524
                 2.10371E-02   dx=   0.0000   0.0000   0.2586   0.0000   0.0000   0.5414   0.0000   0.0000  -0.8000
 Symmetry group is C4V
       -0.48000  1.86796E-02    x=   0.0000   0.0000  -2.1104   0.0000   0.0000  -0.3499   0.0000   0.0000   2.4604
                 2.09279E-02   dx=   0.0000   0.0000   0.2677   0.0000   0.0000   0.5342   0.0000   0.0000  -0.8019
 Symmetry group is C4V
       -0.49000  1.84709E-02    x=   0.0000   0.0000  -2.1131   0.0000   0.0000  -0.3553   0.0000   0.0000   2.4684
                 2.08160E-02   dx=   0.0000   0.0000   0.2760   0.0000   0.0000   0.5275   0.0000   0.0000  -0.8035
 Symmetry group is C4V
       -0.50000  1.82633E-02    x=   0.0000   0.0000  -2.1159   0.0000   0.0000  -0.3606   0.0000   0.0000   2.4764
                 2.07016E-02   dx=   0.0000   0.0000   0.2836   0.0000   0.0000   0.5212   0.0000   0.0000  -0.8049

 Eigenvalues and eigenvectors of hessian

                       m=       1            2            3            4            5            6
  Eigenvalues (au)=           0.391896     0.010625     0.008368     0.008368     0.000000     0.000000
  Frequencies (cm^-1)=     3925.934062   646.441669   573.667503   573.667503     0.000011    -0.000005
  Eigenvectors=
                        1     0.000000     0.000000    -0.499611     0.014026     0.087241     0.639725
                        2     0.000000     0.000000     0.014026     0.499611    -0.639725     0.087241
                        3     0.751429     0.319979     0.000000     0.000000     0.000000     0.000000
                        4     0.000000     0.000000     0.808731    -0.022705     0.014867     0.109014
                        5     0.000000     0.000000    -0.022705    -0.808731    -0.109014     0.014867
                        6    -0.652331     0.491609     0.000000     0.000000     0.000000     0.000000
                        7     0.000000     0.000000    -0.309120     0.008678    -0.102108    -0.748739
                        8     0.000000     0.000000     0.008678     0.309120     0.748739    -0.102108
                        9    -0.099087    -0.809897     0.000000     0.000000     0.000000     0.000000
  

                       m=       7            8            9
  Eigenvalues (au)=           0.000000     0.000000    -0.000053
  Frequencies (cm^-1)=       -0.494449    -0.494449   -45.581563
  Eigenvectors=
                        1     0.203421     0.540327     0.000000
                        2    -0.540327     0.203421     0.000000
                        3     0.000000     0.000000     0.577033
                        4     0.203421     0.540327     0.000000
                        5    -0.540327     0.203421     0.000000
                        6     0.000000     0.000000     0.576875
                        7     0.203421     0.540327     0.000000
                        8    -0.540327     0.203421     0.000000
                        9     0.000000     0.000000     0.578142
  

 Take step from saddle point in product direction

  All quantities in atomic units, x is vector of mass-weighted coordinates,
  dx is the normalized mass-weighted gradient vector, and |dV/x| is the magnitude of the gradient
         s       V,|dV/dx|
        0.00000  2.70840E-02    x=   0.0000   0.0000  -2.1620   0.0000   0.0000   0.0000   0.0000   0.0000   2.1620
                 0.00000E+00   dx=   0.0000   0.0000  -0.4082   0.0000   0.0000   0.8165   0.0000   0.0000  -0.4082
 Symmetry group is C4V
        0.01000  2.70773E-02    x=   0.0000   0.0000  -2.1661   0.0000   0.0000   0.0082   0.0000   0.0000   2.1580
                 1.33475E-03   dx=   0.0000   0.0000   0.4191   0.0000   0.0000  -0.8164   0.0000   0.0000   0.3973
 Symmetry group is C4V
        0.02000  2.70573E-02    x=   0.0000   0.0000  -2.1703   0.0000   0.0000   0.0163   0.0000   0.0000   2.1540
                 2.66371E-03   dx=   0.0000   0.0000   0.4255   0.0000   0.0000  -0.8162   0.0000   0.0000   0.3907
 Symmetry group is C4V
        0.03000  2.70241E-02    x=   0.0000   0.0000  -2.1746   0.0000   0.0000   0.0245   0.0000   0.0000   2.1501
                 3.98127E-03   dx=   0.0000   0.0000   0.4331   0.0000   0.0000  -0.8160   0.0000   0.0000   0.3828
 Symmetry group is C4V
        0.04000  2.69777E-02    x=   0.0000   0.0000  -2.1789   0.0000   0.0000   0.0327   0.0000   0.0000   2.1462
                 5.28180E-03   dx=   0.0000   0.0000   0.4409   0.0000   0.0000  -0.8156   0.0000   0.0000   0.3748
 Symmetry group is C4V
        0.05000  2.69185E-02    x=   0.0000   0.0000  -2.1833   0.0000   0.0000   0.0408   0.0000   0.0000   2.1425
                 6.55986E-03   dx=   0.0000   0.0000   0.4486   0.0000   0.0000  -0.8151   0.0000   0.0000   0.3665

 Eigenvalues and eigenvectors of hessian

                       m=       1            2            3            4            5            6
  Eigenvalues (au)=           0.110101     0.031662    -0.126738     0.000060     0.000000     0.000000
  Frequencies (cm^-1)=     2080.906928  1115.896405 -2232.603531    48.664878     0.253003     0.253003
  Eigenvectors=
                        1     0.000000     0.190660     0.000000     0.000000     0.448417    -0.363669
                        2     0.000000     0.347813     0.000000     0.000000    -0.363669    -0.448417
                        3     0.668725     0.000000    -0.468387    -0.577426     0.000000     0.000000
                        4     0.000000    -0.392425     0.000000     0.000000     0.448418    -0.363669
                        5     0.000000    -0.715885     0.000000     0.000000    -0.363669    -0.448418
                        6     0.071114     0.000000     0.813355    -0.577405     0.000000     0.000000
                        7     0.000000     0.201765     0.000000     0.000000     0.448417    -0.363669
                        8     0.000000     0.368073     0.000000     0.000000    -0.363669    -0.448417
                        9    -0.740101     0.000000    -0.345062    -0.577220     0.000000     0.000000
  

                       m=       7            8            9
  Eigenvalues (au)=           0.000000     0.000000     0.031662
  Frequencies (cm^-1)=       -0.000008    -0.000016  1115.896405
  Eigenvectors=
                        1     0.042689    -0.712404     0.347813
                        2    -0.712404    -0.042689    -0.190660
                        3     0.000000     0.000000     0.000000
                        4    -0.000798     0.013315    -0.715885
                        5     0.013315     0.000798     0.392425
                        6     0.000000     0.000000     0.000000
                        7    -0.041891     0.699089     0.368073
                        8     0.699089     0.041891    -0.201765
                        9     0.000000     0.000000     0.000000
  
 Symmetry group is C4V
        0.06000  2.68466E-02    x=   0.0000   0.0000  -2.1878   0.0000   0.0000   0.0490   0.0000   0.0000   2.1388
                 7.81019E-03   dx=   0.0000   0.0000   0.4565   0.0000   0.0000  -0.8145   0.0000   0.0000   0.3580
 Symmetry group is C4V
        0.07000  2.67624E-02    x=   0.0000   0.0000  -2.1924   0.0000   0.0000   0.0571   0.0000   0.0000   2.1353
                 9.02771E-03   dx=   0.0000   0.0000   0.4645   0.0000   0.0000  -0.8138   0.0000   0.0000   0.3493
 Symmetry group is C4V
        0.08000  2.66662E-02    x=   0.0000   0.0000  -2.1970   0.0000   0.0000   0.0652   0.0000   0.0000   2.1318
                 1.02076E-02   dx=   0.0000   0.0000   0.4726   0.0000   0.0000  -0.8129   0.0000   0.0000   0.3403
 Symmetry group is C4V
        0.09000  2.65584E-02    x=   0.0000   0.0000  -2.2017   0.0000   0.0000   0.0734   0.0000   0.0000   2.1284
                 1.13455E-02   dx=   0.0000   0.0000   0.4809   0.0000   0.0000  -0.8119   0.0000   0.0000   0.3310
 Symmetry group is C4V
        0.10000  2.64394E-02    x=   0.0000   0.0000  -2.2065   0.0000   0.0000   0.0815   0.0000   0.0000   2.1251
                 1.24370E-02   dx=   0.0000   0.0000   0.4893   0.0000   0.0000  -0.8107   0.0000   0.0000   0.3214

 Eigenvalues and eigenvectors of hessian

                       m=       1            2            3            4            5            6
  Eigenvalues (au)=           0.118855     0.030708    -0.107845     0.000122     0.000000     0.000000
  Frequencies (cm^-1)=     2162.052259  1098.954646 -2059.477457    69.404580     0.352160     0.352160
  Eigenvectors=
                        1     0.000000    -0.082007     0.000000     0.000000     0.567287     0.107326
                        2     0.000000    -0.376168     0.000000     0.000000     0.107326    -0.567287
                        3     0.618605     0.000000     0.532677     0.577566     0.000000     0.000000
                        4     0.000000     0.173825     0.000000     0.000000     0.567287     0.107326
                        5     0.000000     0.797336     0.000000     0.000000     0.107326    -0.567287
                        6     0.152002     0.000000    -0.802344     0.577182     0.000000     0.000000
                        7     0.000000    -0.091818     0.000000     0.000000     0.567287     0.107326
                        8     0.000000    -0.421168     0.000000     0.000000     0.107326    -0.567287
                        9    -0.770859     0.000000     0.269256     0.577302     0.000000     0.000000
  

                       m=       7            8            9
  Eigenvalues (au)=           0.000000     0.000000     0.030708
  Frequencies (cm^-1)=        0.000007    -0.000011  1098.954646
  Eigenvectors=
                        1    -0.716200    -0.074138    -0.376168
                        2     0.074138    -0.716200     0.082007
                        3     0.000000     0.000000     0.000000
                        4     0.026450     0.002738     0.797336
                        5    -0.002738     0.026450    -0.173825
                        6     0.000000     0.000000     0.000000
                        7     0.689750     0.071400    -0.421168
                        8    -0.071400     0.689750     0.091818
                        9     0.000000     0.000000     0.000000
  
 Symmetry group is C4V
        0.11000  2.63098E-02    x=   0.0000   0.0000  -2.2114   0.0000   0.0000   0.0896   0.0000   0.0000   2.1218
                 1.34783E-02   dx=   0.0000   0.0000   0.4979   0.0000   0.0000  -0.8094   0.0000   0.0000   0.3114
 Symmetry group is C4V
        0.12000  2.61701E-02    x=   0.0000   0.0000  -2.2164   0.0000   0.0000   0.0977   0.0000   0.0000   2.1187
                 1.44661E-02   dx=   0.0000   0.0000   0.5067   0.0000   0.0000  -0.8078   0.0000   0.0000   0.3011
 Symmetry group is C4V
        0.13000  2.60207E-02    x=   0.0000   0.0000  -2.2215   0.0000   0.0000   0.1058   0.0000   0.0000   2.1157
                 1.53974E-02   dx=   0.0000   0.0000   0.5158   0.0000   0.0000  -0.8060   0.0000   0.0000   0.2903
 Symmetry group is C4V
        0.14000  2.58623E-02    x=   0.0000   0.0000  -2.2266   0.0000   0.0000   0.1138   0.0000   0.0000   2.1128
                 1.62697E-02   dx=   0.0000   0.0000   0.5251   0.0000   0.0000  -0.8040   0.0000   0.0000   0.2790
 Symmetry group is C4V
        0.15000  2.56955E-02    x=   0.0000   0.0000  -2.2319   0.0000   0.0000   0.1219   0.0000   0.0000   2.1100
                 1.70810E-02   dx=   0.0000   0.0000   0.5346   0.0000   0.0000  -0.8018   0.0000   0.0000   0.2672

 Eigenvalues and eigenvectors of hessian

                       m=       1            2            3            4            5            6
  Eigenvalues (au)=           0.135399     0.029043    -0.081286     0.000141     0.000000     0.000000
  Frequencies (cm^-1)=     2307.620212  1068.745954 -1787.993031    74.410795     0.419825     0.419825
  Eigenvectors=
                        1     0.000000     0.332359     0.000000     0.000000     0.091543    -0.570047
                        2     0.000000     0.170260     0.000000     0.000000    -0.570047    -0.091543
                        3    -0.548830     0.000000     0.604182    -0.577711     0.000000     0.000000
                        4     0.000000    -0.725836     0.000000     0.000000     0.091543    -0.570047
                        5     0.000000    -0.371829     0.000000     0.000000    -0.570047    -0.091543
                        6    -0.248914     0.000000    -0.777864    -0.577035     0.000000     0.000000
                        7     0.000000     0.393477     0.000000     0.000000     0.091543    -0.570046
                        8     0.000000     0.201570     0.000000     0.000000    -0.570046    -0.091543
                        9     0.798014     0.000000     0.172894    -0.577305     0.000000     0.000000
  

                       m=       7            8            9
  Eigenvalues (au)=           0.000000     0.000000     0.029043
  Frequencies (cm^-1)=        0.000004    -0.000020  1068.745954
  Eigenvectors=
                        1    -0.104832    -0.718489     0.170260
                        2    -0.718489     0.104832    -0.332359
                        3     0.000000     0.000000     0.000000
                        4     0.005724     0.039232    -0.371829
                        5     0.039232    -0.005724     0.725836
                        6     0.000000     0.000000     0.000000
                        7     0.099108     0.679257     0.201570
                        8     0.679257    -0.099108    -0.393477
                        9     0.000000     0.000000     0.000000
  
 Symmetry group is C4V
        0.16000  2.55209E-02    x=   0.0000   0.0000  -2.2372   0.0000   0.0000   0.1299   0.0000   0.0000   2.1073
                 1.78298E-02   dx=   0.0000   0.0000   0.5444   0.0000   0.0000  -0.7992   0.0000   0.0000   0.2548
 Symmetry group is C4V
        0.17000  2.53391E-02    x=   0.0000   0.0000  -2.2427   0.0000   0.0000   0.1379   0.0000   0.0000   2.1048
                 1.85154E-02   dx=   0.0000   0.0000   0.5544   0.0000   0.0000  -0.7963   0.0000   0.0000   0.2419
 Symmetry group is C4V
        0.18000  2.51508E-02    x=   0.0000   0.0000  -2.2482   0.0000   0.0000   0.1458   0.0000   0.0000   2.1024
                 1.91372E-02   dx=   0.0000   0.0000   0.5647   0.0000   0.0000  -0.7931   0.0000   0.0000   0.2284
 Symmetry group is C4V
        0.19000  2.49566E-02    x=   0.0000   0.0000  -2.2539   0.0000   0.0000   0.1538   0.0000   0.0000   2.1001
                 1.96957E-02   dx=   0.0000   0.0000   0.5752   0.0000   0.0000  -0.7894   0.0000   0.0000   0.2142
 Symmetry group is C4V
        0.20000  2.47571E-02    x=   0.0000   0.0000  -2.2596   0.0000   0.0000   0.1617   0.0000   0.0000   2.0980
                 2.01917E-02   dx=   0.0000   0.0000   0.5860   0.0000   0.0000  -0.7854   0.0000   0.0000   0.1994

 Eigenvalues and eigenvectors of hessian

                       m=       1            2            3            4            5            6
  Eigenvalues (au)=           0.162003     0.026616    -0.053450     0.000000     0.000000     0.000000
  Frequencies (cm^-1)=     2524.167799  1023.128497 -1449.878545     0.467023     0.467023    -0.000008
  Eigenvectors=
                        1     0.000000    -0.059378     0.000000    -0.098982     0.568802     0.121503
                        2     0.000000     0.357161     0.000000    -0.568802    -0.098982     0.721674
                        3    -0.457152     0.000000     0.676235     0.000000     0.000000     0.000000
                        4     0.000000     0.133630     0.000000    -0.098982     0.568802    -0.008693
                        5     0.000000    -0.803784     0.000000    -0.568802    -0.098982    -0.051633
                        6    -0.357329     0.000000    -0.734451     0.000000     0.000000     0.000000
                        7     0.000000    -0.074252     0.000000    -0.098982     0.568802    -0.112810
                        8     0.000000     0.446623     0.000000    -0.568802    -0.098982    -0.670041
                        9     0.814450     0.000000     0.057341     0.000000     0.000000     0.000000
  

                       m=       7            8            9
  Eigenvalues (au)=           0.000000    -0.000005     0.026616
  Frequencies (cm^-1)=       -0.000014   -14.123026  1023.128497
  Eigenvectors=
                        1     0.721674     0.000000    -0.357161
                        2    -0.121503     0.000000    -0.059378
                        3     0.000000     0.577684     0.000000
                        4    -0.051633     0.000000     0.803784
                        5     0.008693     0.000000     0.133630
                        6     0.000000     0.576973     0.000000
                        7    -0.670041     0.000000    -0.446623
                        8     0.112810     0.000000    -0.074252
                        9     0.000000     0.577394     0.000000
  
 Symmetry group is C4V
        0.21000  2.45530E-02    x=   0.0000   0.0000  -2.2655   0.0000   0.0000   0.1695   0.0000   0.0000   2.0960
                 2.06267E-02   dx=   0.0000   0.0000   0.5970   0.0000   0.0000  -0.7809   0.0000   0.0000   0.1839
 Symmetry group is C4V
        0.22000  2.43448E-02    x=   0.0000   0.0000  -2.2715   0.0000   0.0000   0.1773   0.0000   0.0000   2.0941
                 2.10028E-02   dx=   0.0000   0.0000   0.6082   0.0000   0.0000  -0.7759   0.0000   0.0000   0.1677
 Symmetry group is C4V
        0.23000  2.41331E-02    x=   0.0000   0.0000  -2.2775   0.0000   0.0000   0.1851   0.0000   0.0000   2.0924
                 2.13224E-02   dx=   0.0000   0.0000   0.6195   0.0000   0.0000  -0.7704   0.0000   0.0000   0.1509
 Symmetry group is C4V
        0.24000  2.39185E-02    x=   0.0000   0.0000  -2.2837   0.0000   0.0000   0.1928   0.0000   0.0000   2.0909
                 2.15886E-02   dx=   0.0000   0.0000   0.6309   0.0000   0.0000  -0.7643   0.0000   0.0000   0.1334
 Symmetry group is C4V
        0.25000  2.37015E-02    x=   0.0000   0.0000  -2.2900   0.0000   0.0000   0.2004   0.0000   0.0000   2.0896
                 2.18050E-02   dx=   0.0000   0.0000   0.6424   0.0000   0.0000  -0.7576   0.0000   0.0000   0.1152

 Eigenvalues and eigenvectors of hessian

                       m=       1            2            3            4            5            6
  Eigenvalues (au)=           0.199194     0.023486    -0.030117     0.000000     0.000000     0.000000
  Frequencies (cm^-1)=     2798.954177   961.080775 -1088.334203     0.497481     0.497481     0.000019
  Eigenvectors=
                        1     0.000000    -0.343529     0.000000    -0.573232    -0.068839    -0.735848
                        2     0.000000     0.072500     0.000000     0.068839    -0.573232    -0.043883
                        3    -0.356138     0.000000    -0.734274     0.000000     0.000000     0.000000
                        4     0.000000     0.796401     0.000000    -0.573232    -0.068839     0.064405
                        5     0.000000    -0.168076     0.000000     0.068839    -0.573232     0.003841
                        6    -0.458225     0.000000     0.676249     0.000000     0.000000     0.000000
                        7     0.000000    -0.452872     0.000000    -0.573232    -0.068839     0.671443
                        8     0.000000     0.095576     0.000000     0.068839    -0.573232     0.040042
                        9     0.814368     0.000000     0.059397     0.000000     0.000000     0.000000
  

                       m=       7            8            9
  Eigenvalues (au)=           0.000000    -0.000006     0.023486
  Frequencies (cm^-1)=        0.000011   -15.503911   961.080775
  Eigenvectors=
                        1    -0.043883     0.000000     0.072500
                        2     0.735848     0.000000     0.343529
                        3     0.000000    -0.577933     0.000000
                        4     0.003841     0.000000    -0.168076
                        5    -0.064405     0.000000    -0.796401
                        6     0.000000    -0.576816     0.000000
                        7     0.040042     0.000000     0.095576
                        8    -0.671443     0.000000     0.452872
                        9     0.000000    -0.577301     0.000000
  
 Symmetry group is C4V
        0.26000  2.34826E-02    x=   0.0000   0.0000  -2.2965   0.0000   0.0000   0.2080   0.0000   0.0000   2.0885
                 2.19752E-02   dx=   0.0000   0.0000   0.6539   0.0000   0.0000  -0.7504   0.0000   0.0000   0.0965
 Symmetry group is C4V
        0.27000  2.32622E-02    x=   0.0000   0.0000  -2.3030   0.0000   0.0000   0.2155   0.0000   0.0000   2.0875
                 2.21037E-02   dx=   0.0000   0.0000   0.6653   0.0000   0.0000  -0.7426   0.0000   0.0000   0.0773
 Symmetry group is C4V
        0.28000  2.30407E-02    x=   0.0000   0.0000  -2.3097   0.0000   0.0000   0.2229   0.0000   0.0000   2.0867
                 2.21945E-02   dx=   0.0000   0.0000   0.6766   0.0000   0.0000  -0.7341   0.0000   0.0000   0.0576
 Symmetry group is C4V
        0.29000  2.28184E-02    x=   0.0000   0.0000  -2.3164   0.0000   0.0000   0.2303   0.0000   0.0000   2.0861
                 2.22522E-02   dx=   0.0000   0.0000   0.6876   0.0000   0.0000  -0.7251   0.0000   0.0000   0.0375
 Symmetry group is C4V
        0.30000  2.25958E-02    x=   0.0000   0.0000  -2.3233   0.0000   0.0000   0.2375   0.0000   0.0000   2.0858
                 2.22809E-02   dx=   0.0000   0.0000   0.6983   0.0000   0.0000  -0.7156   0.0000   0.0000   0.0172

 Eigenvalues and eigenvectors of hessian

                       m=       1            2            3            4            5            6
  Eigenvalues (au)=           0.243457     0.019897     0.019897     0.000101     0.000000     0.000000
  Frequencies (cm^-1)=     3094.343111   884.608658   884.608658    63.133903     0.514326     0.514326
  Eigenvectors=
                        1     0.000000     0.340486    -0.014288     0.000000    -0.075982    -0.572329
                        2     0.000000    -0.014288    -0.340486     0.000000    -0.572329     0.075982
                        3    -0.267058     0.000000     0.000000    -0.578453     0.000000     0.000000
                        4     0.000000    -0.812250     0.034085     0.000000    -0.075982    -0.572329
                        5     0.000000     0.034085     0.812250     0.000000    -0.572329     0.075982
                        6    -0.534580     0.000000     0.000000    -0.576543     0.000000     0.000000
                        7     0.000000     0.471764    -0.019797     0.000000    -0.075982    -0.572329
                        8     0.000000    -0.019797    -0.471764     0.000000    -0.572329     0.075982
                        9     0.801813     0.000000     0.000000    -0.577054     0.000000     0.000000
  

                       m=       7            8            9
  Eigenvalues (au)=           0.000000     0.000000    -0.013554
  Frequencies (cm^-1)=        0.000018    -0.000006  -730.105097
  Eigenvectors=
                        1    -0.055047    -0.739933     0.000000
                        2    -0.739933     0.055047     0.000000
                        3     0.000000     0.000000    -0.770761
                        4     0.005628     0.075651     0.000000
                        5     0.075651    -0.005628     0.000000
                        6     0.000000     0.000000     0.617918
                        7     0.049419     0.664283     0.000000
                        8     0.664283    -0.049419     0.000000
                        9     0.000000     0.000000     0.155259
  
 Symmetry group is C4V
        0.31000  2.23729E-02    x=   0.0000   0.0000  -2.3303   0.0000   0.0000   0.2447   0.0000   0.0000   2.0856
                 2.22850E-02   dx=   0.0000   0.0000   0.7087   0.0000   0.0000  -0.7055   0.0000   0.0000  -0.0032
 Symmetry group is C4V
        0.32000  2.21502E-02    x=   0.0000   0.0000  -2.3374   0.0000   0.0000   0.2517   0.0000   0.0000   2.0856
                 2.22683E-02   dx=   0.0000   0.0000   0.7186   0.0000   0.0000  -0.6950   0.0000   0.0000  -0.0237
 Symmetry group is C4V
        0.33000  2.19276E-02    x=   0.0000   0.0000  -2.3446   0.0000   0.0000   0.2587   0.0000   0.0000   2.0859
                 2.22344E-02   dx=   0.0000   0.0000   0.7281   0.0000   0.0000  -0.6841   0.0000   0.0000  -0.0440
 Symmetry group is C4V
        0.34000  2.17055E-02    x=   0.0000   0.0000  -2.3518   0.0000   0.0000   0.2655   0.0000   0.0000   2.0863
                 2.21866E-02   dx=   0.0000   0.0000   0.7369   0.0000   0.0000  -0.6729   0.0000   0.0000  -0.0640
 Symmetry group is C4V
        0.35000  2.14840E-02    x=   0.0000   0.0000  -2.3592   0.0000   0.0000   0.2723   0.0000   0.0000   2.0869
                 2.21275E-02   dx=   0.0000   0.0000   0.7452   0.0000   0.0000  -0.6616   0.0000   0.0000  -0.0836

 Eigenvalues and eigenvectors of hessian

                       m=       1            2            3            4            5            6
  Eigenvalues (au)=           0.288592     0.016271     0.016271     0.000085     0.000000     0.000000
  Frequencies (cm^-1)=     3368.989060   799.956787   799.956787    57.923400     0.519586     0.519586
  Eigenvectors=
                        1     0.000000     0.331388     0.001310     0.000000    -0.577349     0.001028
                        2     0.000000     0.001310    -0.331388     0.000000     0.001028     0.577349
                        3    -0.200472     0.000000     0.000000    -0.581151     0.000000     0.000000
                        4     0.000000    -0.811936    -0.003210     0.000000    -0.577350     0.001028
                        5     0.000000    -0.003210     0.811936     0.000000     0.001028     0.577350
                        6    -0.585151     0.000000     0.000000    -0.574660     0.000000     0.000000
                        7     0.000000     0.480548     0.001900     0.000000    -0.577349     0.001028
                        8     0.000000     0.001900    -0.480548     0.000000     0.001028     0.577349
                        9     0.785754     0.000000     0.000000    -0.576220     0.000000     0.000000
  

                       m=       7            8            9
  Eigenvalues (au)=           0.000000     0.000000    -0.002853
  Frequencies (cm^-1)=       -0.000004    -0.000012  -334.998944
  Eigenvectors=
                        1     0.726918    -0.168632     0.000000
                        2    -0.168632    -0.726918     0.000000
                        3     0.000000     0.000000    -0.788717
                        4    -0.083890     0.019461     0.000000
                        5     0.019461     0.083890     0.000000
                        6     0.000000     0.000000     0.572157
                        7    -0.643028     0.149171     0.000000
                        8     0.149171     0.643028     0.000000
                        9     0.000000     0.000000     0.224858
  
 Symmetry group is C4V
        0.36000  2.12630E-02    x=   0.0000   0.0000  -2.3667   0.0000   0.0000   0.2789   0.0000   0.0000   2.0878
                 2.20595E-02   dx=   0.0000   0.0000   0.7528   0.0000   0.0000  -0.6501   0.0000   0.0000  -0.1027
 Symmetry group is C4V
        0.37000  2.10428E-02    x=   0.0000   0.0000  -2.3742   0.0000   0.0000   0.2854   0.0000   0.0000   2.0888
                 2.19847E-02   dx=   0.0000   0.0000   0.7598   0.0000   0.0000  -0.6387   0.0000   0.0000  -0.1211
 Symmetry group is C4V
        0.38000  2.08234E-02    x=   0.0000   0.0000  -2.3818   0.0000   0.0000   0.2918   0.0000   0.0000   2.0900
                 2.19044E-02   dx=   0.0000   0.0000   0.7662   0.0000   0.0000  -0.6274   0.0000   0.0000  -0.1388
 Symmetry group is C4V
        0.39000  2.06048E-02    x=   0.0000   0.0000  -2.3894   0.0000   0.0000   0.2980   0.0000   0.0000   2.0914
                 2.18196E-02   dx=   0.0000   0.0000   0.7720   0.0000   0.0000  -0.6162   0.0000   0.0000  -0.1557
 Symmetry group is C4V
        0.40000  2.03870E-02    x=   0.0000   0.0000  -2.3972   0.0000   0.0000   0.3042   0.0000   0.0000   2.0930
                 2.17313E-02   dx=   0.0000   0.0000   0.7772   0.0000   0.0000  -0.6054   0.0000   0.0000  -0.1718

 Eigenvalues and eigenvectors of hessian

                       m=       1            2            3            4            5            6
  Eigenvalues (au)=           0.329414     0.013033     0.013033     0.003805     0.000072     0.000000
  Frequencies (cm^-1)=     3599.383763   715.936342   715.936342   386.822782    53.190206     0.516343
  Eigenvectors=
                        1     0.000000     0.002050    -0.323049     0.000000     0.000000    -0.025891
                        2     0.000000     0.323049     0.002050     0.000000     0.000000     0.576769
                        3    -0.154188     0.000000     0.000000     0.803478    -0.575022     0.000000
                        4     0.000000    -0.005145     0.810916     0.000000     0.000000    -0.025891
                        5     0.000000    -0.810916    -0.005145     0.000000     0.000000     0.576770
                        6    -0.617234     0.000000     0.000000    -0.532776    -0.578940     0.000000
                        7     0.000000     0.003095    -0.487867     0.000000     0.000000    -0.025891
                        8     0.000000     0.487867     0.003095     0.000000     0.000000     0.576769
                        9     0.771523     0.000000     0.000000    -0.265657    -0.578082     0.000000
  

                       m=       7            8            9
  Eigenvalues (au)=           0.000000     0.000000     0.000000
  Frequencies (cm^-1)=        0.516343     0.000027     0.000010
  Eigenvectors=
                        1    -0.576769     0.009906     0.749803
                        2    -0.025891     0.749803    -0.009906
                        3     0.000000     0.000000     0.000000
                        4    -0.576770    -0.001257    -0.095152
                        5    -0.025891    -0.095152     0.001257
                        6     0.000000     0.000000     0.000000
                        7    -0.576769    -0.008649    -0.654651
                        8    -0.025891    -0.654651     0.008649
                        9     0.000000     0.000000     0.000000
  
 Symmetry group is C4V
        0.41000  2.01702E-02    x=   0.0000   0.0000  -2.4049   0.0000   0.0000   0.3103   0.0000   0.0000   2.0947
                 2.16399E-02   dx=   0.0000   0.0000   0.7818   0.0000   0.0000  -0.5949   0.0000   0.0000  -0.1869
 Symmetry group is C4V
        0.42000  1.99542E-02    x=   0.0000   0.0000  -2.4128   0.0000   0.0000   0.3162   0.0000   0.0000   2.0965
                 2.15457E-02   dx=   0.0000   0.0000   0.7859   0.0000   0.0000  -0.5848   0.0000   0.0000  -0.2011
 Symmetry group is C4V
        0.43000  1.97393E-02    x=   0.0000   0.0000  -2.4206   0.0000   0.0000   0.3221   0.0000   0.0000   2.0986
                 2.14490E-02   dx=   0.0000   0.0000   0.7895   0.0000   0.0000  -0.5751   0.0000   0.0000  -0.2144
 Symmetry group is C4V
        0.44000  1.95253E-02    x=   0.0000   0.0000  -2.4285   0.0000   0.0000   0.3278   0.0000   0.0000   2.1007
                 2.13498E-02   dx=   0.0000   0.0000   0.7927   0.0000   0.0000  -0.5659   0.0000   0.0000  -0.2267
 Symmetry group is C4V
        0.45000  1.93123E-02    x=   0.0000   0.0000  -2.4364   0.0000   0.0000   0.3335   0.0000   0.0000   2.1030
                 2.12481E-02   dx=   0.0000   0.0000   0.7955   0.0000   0.0000  -0.5572   0.0000   0.0000  -0.2382

 Eigenvalues and eigenvectors of hessian

                       m=       1            2            3            4            5            6
  Eigenvalues (au)=           0.363750     0.010403     0.010403     0.007961     0.000061     0.000000
  Frequencies (cm^-1)=     3782.323255   639.627871   639.627871   559.538155    49.116640     0.507178
  Eigenvectors=
                        1     0.000000    -0.026001    -0.314660     0.000000     0.000000     0.576835
                        2     0.000000     0.314660    -0.026001     0.000000     0.000000     0.024377
                        3    -0.122116     0.000000     0.000000     0.807952    -0.576456     0.000000
                        4     0.000000     0.066701     0.807215     0.000000     0.000000     0.576836
                        5     0.000000    -0.807215     0.066701     0.000000     0.000000     0.024377
                        6    -0.638052     0.000000     0.000000    -0.508789    -0.577947     0.000000
                        7     0.000000    -0.040700    -0.492555     0.000000     0.000000     0.576835
                        8     0.000000     0.492555    -0.040700     0.000000     0.000000     0.024377
                        9     0.760248     0.000000     0.000000    -0.297233    -0.577647     0.000000
  

                       m=       7            8            9
  Eigenvalues (au)=           0.000000     0.000000     0.000000
  Frequencies (cm^-1)=        0.507178    -0.000006    -0.000020
  Eigenvectors=
                        1    -0.024377    -0.752819    -0.015600
                        2     0.576835    -0.015600     0.752819
                        3     0.000000     0.000000     0.000000
                        4    -0.024377     0.103036     0.002135
                        5     0.576836     0.002135    -0.103036
                        6     0.000000     0.000000     0.000000
                        7    -0.024377     0.649783     0.013465
                        8     0.576835     0.013465    -0.649783
                        9     0.000000     0.000000     0.000000
  
 Symmetry group is C4V
        0.46000  1.91003E-02    x=   0.0000   0.0000  -2.4444   0.0000   0.0000   0.3390   0.0000   0.0000   2.1053
                 2.11439E-02   dx=   0.0000   0.0000   0.7979   0.0000   0.0000  -0.5491   0.0000   0.0000  -0.2488
 Symmetry group is C4V
        0.47000  1.88894E-02    x=   0.0000   0.0000  -2.4524   0.0000   0.0000   0.3445   0.0000   0.0000   2.1078
                 2.10371E-02   dx=   0.0000   0.0000   0.8000   0.0000   0.0000  -0.5414   0.0000   0.0000  -0.2586
 Symmetry group is C4V
        0.48000  1.86796E-02    x=   0.0000   0.0000  -2.4604   0.0000   0.0000   0.3499   0.0000   0.0000   2.1104
                 2.09279E-02   dx=   0.0000   0.0000   0.8019   0.0000   0.0000  -0.5342   0.0000   0.0000  -0.2677
 Symmetry group is C4V
        0.49000  1.84709E-02    x=   0.0000   0.0000  -2.4684   0.0000   0.0000   0.3553   0.0000   0.0000   2.1131
                 2.08160E-02   dx=   0.0000   0.0000   0.8035   0.0000   0.0000  -0.5275   0.0000   0.0000  -0.2760
 Symmetry group is C4V
        0.50000  1.82633E-02    x=   0.0000   0.0000  -2.4764   0.0000   0.0000   0.3606   0.0000   0.0000   2.1159
                 2.07016E-02   dx=   0.0000   0.0000   0.8049   0.0000   0.0000  -0.5212   0.0000   0.0000  -0.2836

 Eigenvalues and eigenvectors of hessian

                       m=       1            2            3            4            5            6
  Eigenvalues (au)=           0.391887     0.010626     0.008368     0.008368     0.000053     0.000000
  Frequencies (cm^-1)=     3925.887504   646.461946   573.667484   573.667484    45.574683     0.494457
  Eigenvectors=
                        1     0.000000     0.000000    -0.302763    -0.062969     0.000000    -0.043491
                        2     0.000000     0.000000    -0.062969     0.302763     0.000000     0.575710
                        3    -0.099084     0.810864     0.000000     0.000000    -0.576786     0.000000
                        4     0.000000     0.000000     0.792099     0.164742     0.000000    -0.043491
                        5     0.000000     0.000000     0.164742    -0.792099     0.000000     0.575710
                        6    -0.652304    -0.490653     0.000000     0.000000    -0.577718     0.000000
                        7     0.000000     0.000000    -0.489337    -0.101773     0.000000    -0.043491
                        8     0.000000     0.000000    -0.101773     0.489337     0.000000     0.575710
                        9     0.751453    -0.318997     0.000000     0.000000    -0.577545     0.000000
  

                       m=       7            8            9
  Eigenvalues (au)=           0.000000     0.000000     0.000000
  Frequencies (cm^-1)=        0.494457     0.000021     0.000002
  Eigenvectors=
                        1     0.575710     0.000760    -0.755669
                        2     0.043491     0.755669     0.000760
                        3     0.000000     0.000000     0.000000
                        4     0.575710    -0.000111     0.110023
                        5     0.043491    -0.110023    -0.000111
                        6     0.000000     0.000000     0.000000
                        7     0.575710    -0.000650     0.645646
                        8     0.043491    -0.645646    -0.000650
                        9     0.000000     0.000000     0.000000
  


 Sort data in file 30 so points along MEP have the reaction coordinate in ascending order.
 Also calculate the values of the reaction coordinate at the reactant and product geometries
  and shift energies so reactant v is zero.

 Summary of sorted data (all units are atomic)
     R = reactants, P = products, * = saddle point or starting geometry

         s           V               x (mass weighted)
 R   -187.13167  0.00000E+00         0.0000   0.0000 -78.2806   0.0000   0.0000 -76.5799   0.0000   0.0000 154.8605
 P    187.13167  0.00000E+00         0.0000   0.0000-154.8605   0.0000   0.0000  76.5799   0.0000   0.0000  78.2806
 *      0.00000  2.70840E-02         0.0000   0.0000  -2.1620   0.0000   0.0000   0.0000   0.0000   0.0000   2.1620
  
       -0.50000  1.82633E-02         0.0000   0.0000  -2.1159   0.0000   0.0000  -0.3606   0.0000   0.0000   2.4764
       -0.45000  1.93123E-02         0.0000   0.0000  -2.1030   0.0000   0.0000  -0.3335   0.0000   0.0000   2.4364
       -0.40000  2.03870E-02         0.0000   0.0000  -2.0930   0.0000   0.0000  -0.3042   0.0000   0.0000   2.3972
       -0.35000  2.14840E-02         0.0000   0.0000  -2.0869   0.0000   0.0000  -0.2723   0.0000   0.0000   2.3592
       -0.30000  2.25958E-02         0.0000   0.0000  -2.0858   0.0000   0.0000  -0.2375   0.0000   0.0000   2.3233
       -0.25000  2.37015E-02         0.0000   0.0000  -2.0896   0.0000   0.0000  -0.2004   0.0000   0.0000   2.2900
       -0.20000  2.47571E-02         0.0000   0.0000  -2.0980   0.0000   0.0000  -0.1617   0.0000   0.0000   2.2596
       -0.15000  2.56955E-02         0.0000   0.0000  -2.1100   0.0000   0.0000  -0.1219   0.0000   0.0000   2.2319
       -0.10000  2.64394E-02         0.0000   0.0000  -2.1251   0.0000   0.0000  -0.0815   0.0000   0.0000   2.2065
       -0.05000  2.69185E-02         0.0000   0.0000  -2.1425   0.0000   0.0000  -0.0408   0.0000   0.0000   2.1833
        0.05000  2.69185E-02         0.0000   0.0000  -2.1833   0.0000   0.0000   0.0408   0.0000   0.0000   2.1425
        0.10000  2.64394E-02         0.0000   0.0000  -2.2065   0.0000   0.0000   0.0815   0.0000   0.0000   2.1251
        0.15000  2.56955E-02         0.0000   0.0000  -2.2319   0.0000   0.0000   0.1219   0.0000   0.0000   2.1100
        0.20000  2.47571E-02         0.0000   0.0000  -2.2596   0.0000   0.0000   0.1617   0.0000   0.0000   2.0980
        0.25000  2.37015E-02         0.0000   0.0000  -2.2900   0.0000   0.0000   0.2004   0.0000   0.0000   2.0896
        0.30000  2.25958E-02         0.0000   0.0000  -2.3233   0.0000   0.0000   0.2375   0.0000   0.0000   2.0858
        0.35000  2.14840E-02         0.0000   0.0000  -2.3592   0.0000   0.0000   0.2723   0.0000   0.0000   2.0869
        0.40000  2.03870E-02         0.0000   0.0000  -2.3972   0.0000   0.0000   0.3042   0.0000   0.0000   2.0930
        0.45000  1.93123E-02         0.0000   0.0000  -2.4364   0.0000   0.0000   0.3335   0.0000   0.0000   2.1030
        0.50000  1.82633E-02         0.0000   0.0000  -2.4764   0.0000   0.0000   0.3606   0.0000   0.0000   2.1159


 Summary of MEP data
     R = reactants, P = products, * = saddle point or starting geometry

  Cartesian coordinates, x

        s (au)   V (kcal/mol)        x (Angstroms)
 R   -187.13167  0.00000E+00
 P    187.13167  0.00000E+00
 *      0.00000  1.69954E+01         0.0000   0.0000  -0.9342   0.0000   0.0000   0.0000   0.0000   0.0000   0.9342
       -0.50000  1.14604E+01         0.0000   0.0000  -0.9142   0.0000   0.0000  -0.1558   0.0000   0.0000   1.0700
       -0.45000  1.21186E+01         0.0000   0.0000  -0.9086   0.0000   0.0000  -0.1441   0.0000   0.0000   1.0527
       -0.40000  1.27930E+01         0.0000   0.0000  -0.9043   0.0000   0.0000  -0.1314   0.0000   0.0000   1.0358
       -0.35000  1.34814E+01         0.0000   0.0000  -0.9017   0.0000   0.0000  -0.1176   0.0000   0.0000   1.0194
       -0.30000  1.41791E+01         0.0000   0.0000  -0.9012   0.0000   0.0000  -0.1026   0.0000   0.0000   1.0038
       -0.25000  1.48729E+01         0.0000   0.0000  -0.9029   0.0000   0.0000  -0.0866   0.0000   0.0000   0.9895
       -0.20000  1.55353E+01         0.0000   0.0000  -0.9065   0.0000   0.0000  -0.0699   0.0000   0.0000   0.9763
       -0.15000  1.61242E+01         0.0000   0.0000  -0.9117   0.0000   0.0000  -0.0527   0.0000   0.0000   0.9643
       -0.10000  1.65910E+01         0.0000   0.0000  -0.9182   0.0000   0.0000  -0.0352   0.0000   0.0000   0.9534
       -0.05000  1.68916E+01         0.0000   0.0000  -0.9257   0.0000   0.0000  -0.0176   0.0000   0.0000   0.9434
        0.05000  1.68916E+01         0.0000   0.0000  -0.9434   0.0000   0.0000   0.0176   0.0000   0.0000   0.9257
        0.10000  1.65910E+01         0.0000   0.0000  -0.9534   0.0000   0.0000   0.0352   0.0000   0.0000   0.9182
        0.15000  1.61242E+01         0.0000   0.0000  -0.9643   0.0000   0.0000   0.0527   0.0000   0.0000   0.9117
        0.20000  1.55353E+01         0.0000   0.0000  -0.9763   0.0000   0.0000   0.0699   0.0000   0.0000   0.9065
        0.25000  1.48729E+01         0.0000   0.0000  -0.9895   0.0000   0.0000   0.0866   0.0000   0.0000   0.9029
        0.30000  1.41791E+01         0.0000   0.0000  -1.0038   0.0000   0.0000   0.1026   0.0000   0.0000   0.9012
        0.35000  1.34814E+01         0.0000   0.0000  -1.0194   0.0000   0.0000   0.1176   0.0000   0.0000   0.9017
        0.40000  1.27930E+01         0.0000   0.0000  -1.0358   0.0000   0.0000   0.1314   0.0000   0.0000   0.9043
        0.45000  1.21186E+01         0.0000   0.0000  -1.0527   0.0000   0.0000   0.1441   0.0000   0.0000   0.9086
        0.50000  1.14604E+01         0.0000   0.0000  -1.0700   0.0000   0.0000   0.1558   0.0000   0.0000   0.9142


  Frequencies

        s (au)                      frequencies (cm^-1)
 R   -187.13167                     4657.16
 P    187.13167                     4657.16
 *      0.00000                     2054.91  1121.41  1121.41 -2292.04
  
       -0.50000                     3921.69   573.67   573.67
       -0.45000                     3771.30   639.63   639.63
       -0.40000                     3573.16   715.94   715.94
       -0.35000                     3318.29   799.96   799.96
       -0.30000                     3021.61   884.61   884.61
       -0.25000                     2725.41   961.08   961.08
       -0.20000                     2472.11  1023.13  1023.13
       -0.15000                     2281.11  1068.75  1068.75
       -0.10000                     2152.36  1098.95  1098.95
       -0.05000                     2079.01  1115.90  1115.90
        0.05000                     2079.00  1115.90  1115.90
        0.10000                     2152.41  1098.95  1098.95
        0.15000                     2281.16  1068.75  1068.75
        0.20000                     2472.16  1023.13  1023.13
        0.25000                     2725.43   961.08   961.08
        0.30000                     3021.58   884.61   884.61
        0.35000                     3318.25   799.96   799.96
        0.40000                     3573.11   715.94   715.94
        0.45000                     3771.25   639.63   639.63
        0.50000                     3921.65   573.67   573.67
 drdy_NWChem has finished correctly, bye !

 Task  times  cpu:       76.4s     wall:       95.9s
