 argument  1 = ./h3tr5.nw
                                         
                                         
 
 
              Northwest Computational Chemistry Package (NWChem) 4.0
              ------------------------------------------------------
 
 
                    Environmental Molecular Sciences Laboratory
                       Pacific Northwest National Laboratory
                                Richland, WA 99352
 
                                         
                                         
 
 
            COPYRIGHT (C) 1994, 1995, 1996, 1997, 1998, 1999, 2000, 2001
                        Pacific Northwest National Laboratory,
                             Battelle Memorial Institute.
 
                            >>> All Rights Reserved <<<
 
 
                                    DISCLAIMER
                                    ----------

            This material was prepared as an account of work sponsored
            by an agency of the United States Government.  Neither the
            United States Government nor the United States Department
            of Energy, nor Battelle, nor any of their employees, MAKES
            ANY WARRANTY, EXPRESS OR IMPLIED, OR ASSUMES ANY LEGAL
            LIABILITY OR RESPONSIBILITY FOR THE ACCURACY, COMPLETENESS,
            OR USEFULNESS OF ANY INFORMATION, APPARATUS, PRODUCT,
            SOFTWARE, OR PROCESS DISCLOSED, OR REPRESENTS THAT ITS USE
            WOULD NOT INFRINGE PRIVATELY OWNED RIGHTS.


                                    LIMITED USE
                                    -----------

            This software (including any documentation) is being made
            available to you for your internal use only, solely for use
            in performance of work directly for the U.S. Federal
            Government or work under contracts with the U.S. Department
            of Energy or other U.S. Federal Government agencies.  This
            software is a version which has not yet been evaluated and
            cleared for commercialization.  Adherence to this notice
            may be necessary for the author, Battelle Memorial
            Institute, to successfully assert copyright in and
            commercialize this software. This software is not intended
            for duplication or distribution to third parties without
            the permission of the Manager of Software Products at
            Pacific Northwest National Laboratory, Richland,
            Washington, 99352.


                                  ACKNOWLEDGMENT
                                  --------------

            This software and its documentation were produced with
            Government support under Contract Number DE-AC06-76RLO-1830
            awarded by the United States Department of Energy.  The
            Government retains a paid-up non-exclusive, irrevocable
            worldwide license to reproduce, prepare derivative works,
            perform publicly and display publicly by or for the
            Government, including the right to distribute to other
            Government contractors.


           Job information
           ---------------

    hostname      = pitb
    program       = /usr/users/windus/nwchem/bin/DECOSF/nwchem
    date          = Tue May  1 13:24:28 2001

    compiled      = Tue May  1 13:19:17 PDT 2001
    source        = /usr/users/windus/nwchem
    nwchem branch = Development
    input         = ./h3tr5.nw
    prefix        = h3.
    data base     = ./h3.db
    status        = startup
    nproc         =    1
    time left     =     -1s



           Memory information
           ------------------

    heap      =   47382524 doubles =    361.5 Mbytes
    stack     =   15794169 doubles =    120.5 Mbytes
    global    =   63176714 doubles =    482.0 Mbytes (within heap+stack)
    total     =   63176693 doubles =    482.0 Mbytes
    verify    = yes
    hardfail  = no 


           Directory information
           ---------------------
 
  0 permanent = .
  0 scratch   = .
 
 
 
 
                                NWChem Input Module
                                -------------------
 
 
                      Basis "ao basis" -> "" (cartesian)
                      -----
  h (Hydrogen)
  ------------
            Exponent  Coefficients 
       -------------- ---------------------------------------------------------
  1 S  5.44717800E+00  0.156285
  1 S  8.24547000E-01  0.904691
 
  2 S  1.83192000E-01  1.000000
 


 Summary of "ao basis" -> "" (cartesian)
 ------------------------------------------------------------------------------
       Tag                 Description            Shells   Functions and Types
 ---------------- ------------------------------  ------  ---------------------
 h                           3-21G                   2        2   2s




 DIRDYVTST - DiRect DYnamics for Variational Transition State Theory with the NWChem  electronic structure code

     This code prepares the file30 input for POLYRATE from electronic structure calculations of gradients
     hessians at the reactant, product, and saddle point geometries, and along the minimum energy path.
     Cartesian geometries for the reactants, products, and saddle points need to be input to this code;
     optimization for these geometries is not performed in the code.  Points along the minimum energy path
     are calculated here.

 Options, lgs=
   1 0 0 0 0 1 0 0 0 0 0 0 0 0 0 0 0 0 0 0 0 0 0 0 0 0 0 0 0 0 4 0 0 0 0 0 0 3 0

           Note that only lgs 1,2,6,8,27,31,38,39 are used.

     lgs( 1)= 1, saddle point; MEP started along unbound eigenvector
     lgs( 2)= 0, frequencies and eigenvectors at save points along MEP are not printed
     lgs( 6)= 1,  2, reactants,  2, products
     lgs( 8)= 0, no restart
     lgs(27)= 0, use original direction of unbound eigenvector at saddle point
     lgs(31)= 4, MEP calculation uses Page-McIver CUBE algorithm
     lgs(38)= 3, Electronic structure output and checkpoint files saved
     lgs(39)= 0, No single point calculation  performed


 Title:
    Test run: H+H2 reaction, Page-McIver CUBE algorithm, no restart, save files  


 Number of atoms =     3


 Masses
                                  amu             a.u.            kg
     Mass of atom  1           1.007825      1837.108749   1.673231E-27
     Mass of atom  2           1.007825      1837.108749   1.673231E-27
     Mass of atom  3           1.007825      1837.108749   1.673231E-27
     Forward reduced mass      0.671899      1224.768271   1.115514E-27


 Reactants

     Input geometry (cartesian coordinates in au)
      atom            x             y             z
        1          0.00000       0.00000       0.00000
        2          0.00000       0.00000       1.38861
        3          0.00000       0.00000     190.36121

     Species 1 consists of atom(s):    1  2
          icode=    3

     Species 2 consists of atom(s):    3
          icode=    1


 Products

     Input geometry (cartesian coordinates in au)
      atom            x             y             z
        1          0.00000       0.00000     190.36121
        2          0.00000       0.00000       1.38861
        3          0.00000       0.00000       0.00000

     Species 3 consists of atom(s):    2  3
          icode=    3

     Species 4 consists of atom(s):    1
          icode=    1


 Saddle point or starting geometry on MEP

     Input geometry (cartesian coordinates in au)
      atom            x             y             z
        1          0.00000       0.00000      -1.76532
        2          0.00000       0.00000       0.00000
        3          0.00000       0.00000       1.76532
          icode=    3

 Mass scaled coordinates, rotated so principle axes are aligned

     Reactants
      atom            x             y             z
        1          0.00000       0.00000     -78.28061
        2          0.00000       0.00000     -76.57993
        3          0.00000       0.00000     154.86054

     Products
      atom            x             y             z
        1          0.00000       0.00000    -154.86054
        2          0.00000       0.00000      76.57993
        3          0.00000       0.00000      78.28061

     Saddle point or starting geometry on MEP
      atom            x             y             z
        1          0.00000       0.00000      -2.16204
        2          0.00000       0.00000       0.00000
        3          0.00000       0.00000       2.16204


 Parameters for MEP calculation

     Step size, dels=  0.050000
     Interval for saving Hessian data, delsv =  0.050000
     Interval for computing Hessian data, delhss =  0.050000
     Path also stopped if s .gt.  0.500000 or s .lt. -0.500000


 ********** Reactants

 Geometry in mass-scaled cartesians (bohrs):

                 x               y               z
   1        0.000000E+00    0.000000E+00   -7.828061E+01
   2        0.000000E+00    0.000000E+00   -7.657993E+01
   3        0.000000E+00    0.000000E+00    1.548605E+02
 Symmetry group is C4V
          save file, system command=  cp ./h3.movecs ./h3.movecs.sreact                                                                                                                                                                                                                              
          save file, system command=  cp ./h3.hess ./h3.hess.sreact                                                                                                                                                                                                                                  

 Potential energy=  -1.6191584449E+00 Hartree= -1.01604E+03 kcal/mol

 Derivatives in mass-scaled cartesians (au):
   1        0.000000E+00    0.000000E+00   -4.574978E-08
   2        0.000000E+00    0.000000E+00    4.574978E-08
   3        0.000000E+00    0.000000E+00    5.324826E-17

 Reactant species    1

 Eigenvalues and eigenvectors of hessian

                       m=       1            2            3            4            5            6
  Eigenvalues (au)=           0.551478     0.000000     0.000000     0.000000     0.000000     0.000000
  Frequencies (cm^-1)=     4657.164836     3.024441     3.024441     0.000066     0.000063    -0.000048
  Eigenvectors=
                        1     0.000000     0.707107     0.000000    -0.707107     0.000000     0.000000
                        2     0.000000     0.000000    -0.707107     0.000000     0.704361     0.062257
                        3     0.707107     0.000000     0.000000     0.000000     0.062257    -0.704361
                        4     0.000000    -0.707107     0.000000    -0.707107     0.000000     0.000000
                        5     0.000000     0.000000     0.707107     0.000000     0.704361     0.062257
                        6    -0.707107     0.000000     0.000000     0.000000     0.062257    -0.704361
  

 Reactant species    2 is an atom


 ********** Products

 Geometry in mass-scaled cartesians (bohrs):

                 x               y               z
   1        0.000000E+00    0.000000E+00   -1.548605E+02
   2        0.000000E+00    0.000000E+00    7.657993E+01
   3        0.000000E+00    0.000000E+00    7.828061E+01
 Symmetry group is C4V
          save file, system command=  cp ./h3.movecs ./h3.movecs.sprodt                                                                                                                                                                                                                              
          save file, system command=  cp ./h3.hess ./h3.hess.sprodt                                                                                                                                                                                                                                  

 Potential energy=  -1.6191584449E+00 Hartree= -1.01604E+03 kcal/mol

 Derivatives in mass-scaled cartesians (au):
   1        0.000000E+00    0.000000E+00   -2.983319E-17
   2        0.000000E+00    0.000000E+00   -4.574978E-08
   3        0.000000E+00    0.000000E+00    4.574978E-08

 Product species     1

 Eigenvalues and eigenvectors of hessian

                       m=       1            2            3            4            5            6
  Eigenvalues (au)=           0.551478     0.000000     0.000000     0.000000     0.000000     0.000000
  Frequencies (cm^-1)=     4657.164836     3.024441     3.024441     0.000066    -0.000046    -0.000046
  Eigenvectors=
                        1     0.000000     0.000000     0.707107     0.000000     0.000000     0.707107
                        2     0.000000     0.707107     0.000000     0.000000    -0.707107     0.000000
                        3     0.707107     0.000000     0.000000     0.707107     0.000000     0.000000
                        4     0.000000     0.000000    -0.707107     0.000000     0.000000     0.707107
                        5     0.000000    -0.707107     0.000000     0.000000    -0.707107     0.000000
                        6    -0.707107     0.000000     0.000000     0.707107     0.000000     0.000000
  

 Product species     2 is an atom


 ********** Saddle point or starting point

 Geometry in mass-scaled cartesians (bohrs):

                 x               y               z
   1        0.000000E+00    0.000000E+00   -2.162041E+00
   2        0.000000E+00    0.000000E+00    0.000000E+00
   3        0.000000E+00    0.000000E+00    2.162041E+00
 Symmetry group is D4H
          save file, system command=  cp ./h3.movecs ./h3.movecs.P00.00                                                                                                                                                                                                                              
          save file, system command=  cp ./h3.hess ./h3.hess.P00.00                                                                                                                                                                                                                                  

 Potential energy=  -1.5920744789E+00 Hartree= -9.99042E+02 kcal/mol

 Derivatives in mass-scaled cartesians (au):
   1        0.000000E+00    0.000000E+00   -2.372509E-08
   2        0.000000E+00    0.000000E+00    0.000000E+00
   3        0.000000E+00    0.000000E+00    2.372509E-08

 Eigenvalues and eigenvectors of hessian

                       m=       1            2            3            4            5            6
  Eigenvalues (au)=           0.107367     0.031975     0.031975    -0.133577     0.000000     0.000000
  Frequencies (cm^-1)=     2054.905320  1121.409344  1121.409344 -2292.042610     1.008024     1.008024
  Eigenvectors=
                        1     0.000000     0.375428    -0.160376     0.000000    -0.629221     0.322616
                        2     0.000000     0.160376     0.375428     0.000000    -0.322616    -0.629221
                        3    -0.707107     0.000000     0.000000    -0.408249     0.000000     0.000000
                        4     0.000000    -0.750856     0.320753     0.000000     0.000000     0.000000
                        5     0.000000    -0.320753    -0.750856     0.000000     0.000000     0.000000
                        6     0.000000     0.000000     0.000000     0.816496     0.000000     0.000000
                        7     0.000000     0.375428    -0.160376     0.000000     0.629221    -0.322616
                        8     0.000000     0.160376     0.375428     0.000000     0.322616     0.629221
                        9     0.707107     0.000000     0.000000    -0.408249     0.000000     0.000000
  

                       m=       7            8            9
  Eigenvalues (au)=           0.000000     0.000000     0.000000
  Frequencies (cm^-1)=        0.298404     0.298404     2.280222
  Eigenvectors=
                        1    -0.345859     0.462293     0.000000
                        2     0.462293     0.345859     0.000000
                        3     0.000000     0.000000     0.577350
                        4    -0.345859     0.462293     0.000000
                        5     0.462293     0.345859     0.000000
                        6     0.000000     0.000000     0.577351
                        7    -0.345859     0.462293     0.000000
                        8     0.462293     0.345859     0.000000
                        9     0.000000     0.000000     0.577350
  


 Set up to take first step off saddle point

 Vector for initial step off saddle point=
                                     0.0000   0.0000  -0.4082   0.0000   0.0000   0.8165   0.0000   0.0000  -0.4082
 Symmetry group is C4V
 Symmetry group is C4V

 Second order correction for vector=
                                     0.0000   0.0000  -0.7741   0.0000   0.0000   0.0000   0.0000   0.0000   0.7741


 ********** Calculate points along reaction path

      dels=          5.00000E-02
      delsv=         5.00000E-02
      delhss=        5.00000E-02
      dir=           1.00000E+00
      slm=          -5.00000E-01
      slp=           5.00000E-01

 Path followed using Page-McIver CUBE algorithm

 Take step from saddle point in reactant direction

  All quantities in atomic units, x is vector of mass-weighted coordinates,
  dx is the normalized mass-weighted gradient vector, and |dV/x| is the magnitude of the gradient
         s       V,|dV/dx|
        0.00000  2.70840E-02    x=   0.0000   0.0000  -2.1620   0.0000   0.0000   0.0000   0.0000   0.0000   2.1620
                 0.00000E+00   dx=   0.0000   0.0000  -0.4082   0.0000   0.0000   0.8165   0.0000   0.0000  -0.4082
 Symmetry group is C4V
       -0.05000  2.69183E-02    x=   0.0000   0.0000  -2.1426   0.0000   0.0000  -0.0408   0.0000   0.0000   2.1834
                 6.56466E-03   dx=   0.0000   0.0000  -0.3682   0.0000   0.0000   0.8152   0.0000   0.0000  -0.4470
          save file, system command=  cp ./h3.movecs ./h3.movecs.M00.05                                                                                                                                                                                                                              
          save file, system command=  cp ./h3.hess ./h3.hess.M00.05                                                                                                                                                                                                                                  
 Symmetry group is C4V
       -0.10000  2.64389E-02    x=   0.0000   0.0000  -2.1252   0.0000   0.0000  -0.0815   0.0000   0.0000   2.2067
                 1.24460E-02   dx=   0.0000   0.0000  -0.3233   0.0000   0.0000   0.8110   0.0000   0.0000  -0.4876
          save file, system command=  cp ./h3.movecs ./h3.movecs.M00.10                                                                                                                                                                                                                              
          save file, system command=  cp ./h3.hess ./h3.hess.M00.10                                                                                                                                                                                                                                  
 Symmetry group is C4V
       -0.15000  2.56943E-02    x=   0.0000   0.0000  -2.1103   0.0000   0.0000  -0.1219   0.0000   0.0000   2.2322
                 1.70979E-02   dx=   0.0000   0.0000  -0.2696   0.0000   0.0000   0.8023   0.0000   0.0000  -0.5326
          save file, system command=  cp ./h3.movecs ./h3.movecs.M00.15                                                                                                                                                                                                                              
          save file, system command=  cp ./h3.hess ./h3.hess.M00.15                                                                                                                                                                                                                                  
 Symmetry group is C4V
       -0.20000  2.47546E-02    x=   0.0000   0.0000  -2.0984   0.0000   0.0000  -0.1616   0.0000   0.0000   2.2600
                 2.02209E-02   dx=   0.0000   0.0000  -0.2030   0.0000   0.0000   0.7864   0.0000   0.0000  -0.5834
          save file, system command=  cp ./h3.movecs ./h3.movecs.M00.20                                                                                                                                                                                                                              
          save file, system command=  cp ./h3.hess ./h3.hess.M00.20                                                                                                                                                                                                                                  
 Symmetry group is C4V
       -0.25000  2.36969E-02    x=   0.0000   0.0000  -2.0902   0.0000   0.0000  -0.2003   0.0000   0.0000   2.2906
                 2.18490E-02   dx=   0.0000   0.0000  -0.1206   0.0000   0.0000   0.7597   0.0000   0.0000  -0.6390
          save file, system command=  cp ./h3.movecs ./h3.movecs.M00.25                                                                                                                                                                                                                              
          save file, system command=  cp ./h3.hess ./h3.hess.M00.25                                                                                                                                                                                                                                  
 Symmetry group is C4V
       -0.30000  2.25883E-02    x=   0.0000   0.0000  -2.0866   0.0000   0.0000  -0.2374   0.0000   0.0000   2.3240
                 2.23360E-02   dx=   0.0000   0.0000  -0.0251   0.0000   0.0000   0.7193   0.0000   0.0000  -0.6942
          save file, system command=  cp ./h3.movecs ./h3.movecs.M00.30                                                                                                                                                                                                                              
          save file, system command=  cp ./h3.hess ./h3.hess.M00.30                                                                                                                                                                                                                                  
 Symmetry group is C4V
       -0.35000  2.14736E-02    x=   0.0000   0.0000  -2.0879   0.0000   0.0000  -0.2721   0.0000   0.0000   2.3599
                 2.21804E-02   dx=   0.0000   0.0000   0.0733   0.0000   0.0000   0.6676   0.0000   0.0000  -0.7409
          save file, system command=  cp ./h3.movecs ./h3.movecs.M00.35                                                                                                                                                                                                                              
          save file, system command=  cp ./h3.hess ./h3.hess.M00.35                                                                                                                                                                                                                                  
 Symmetry group is C4V
       -0.40000  2.03746E-02    x=   0.0000   0.0000  -2.0939   0.0000   0.0000  -0.3040   0.0000   0.0000   2.3979
                 2.17676E-02   dx=   0.0000   0.0000   0.1607   0.0000   0.0000   0.6129   0.0000   0.0000  -0.7736
          save file, system command=  cp ./h3.movecs ./h3.movecs.M00.40                                                                                                                                                                                                                              
          save file, system command=  cp ./h3.hess ./h3.hess.M00.40                                                                                                                                                                                                                                  
 Symmetry group is C4V
       -0.45000  1.92988E-02    x=   0.0000   0.0000  -2.1037   0.0000   0.0000  -0.3334   0.0000   0.0000   2.4371
                 2.12644E-02   dx=   0.0000   0.0000   0.2286   0.0000   0.0000   0.5646   0.0000   0.0000  -0.7931
          save file, system command=  cp ./h3.movecs ./h3.movecs.M00.45                                                                                                                                                                                                                              
          save file, system command=  cp ./h3.hess ./h3.hess.M00.45                                                                                                                                                                                                                                  
 Symmetry group is C4V
       -0.50000  1.82496E-02    x=   0.0000   0.0000  -2.1164   0.0000   0.0000  -0.3606   0.0000   0.0000   2.4770
                 2.07042E-02   dx=   0.0000   0.0000   0.2765   0.0000   0.0000   0.5270   0.0000   0.0000  -0.8036
          save file, system command=  cp ./h3.movecs ./h3.movecs.M00.50                                                                                                                                                                                                                              
          save file, system command=  cp ./h3.hess ./h3.hess.M00.50                                                                                                                                                                                                                                  

 Take step from saddle point in product direction

  All quantities in atomic units, x is vector of mass-weighted coordinates,
  dx is the normalized mass-weighted gradient vector, and |dV/x| is the magnitude of the gradient
         s       V,|dV/dx|
        0.00000  2.70840E-02    x=   0.0000   0.0000  -2.1620   0.0000   0.0000   0.0000   0.0000   0.0000   2.1620
                 0.00000E+00   dx=   0.0000   0.0000  -0.4082   0.0000   0.0000   0.8165   0.0000   0.0000  -0.4082
 Symmetry group is C4V
        0.05000  2.69183E-02    x=   0.0000   0.0000  -2.1834   0.0000   0.0000   0.0408   0.0000   0.0000   2.1426
                 6.56466E-03   dx=   0.0000   0.0000   0.4470   0.0000   0.0000  -0.8152   0.0000   0.0000   0.3682
          save file, system command=  cp ./h3.movecs ./h3.movecs.P00.05                                                                                                                                                                                                                              
          save file, system command=  cp ./h3.hess ./h3.hess.P00.05                                                                                                                                                                                                                                  
 Symmetry group is C4V
        0.10000  2.64389E-02    x=   0.0000   0.0000  -2.2067   0.0000   0.0000   0.0815   0.0000   0.0000   2.1252
                 1.24460E-02   dx=   0.0000   0.0000   0.4876   0.0000   0.0000  -0.8110   0.0000   0.0000   0.3233
          save file, system command=  cp ./h3.movecs ./h3.movecs.P00.10                                                                                                                                                                                                                              
          save file, system command=  cp ./h3.hess ./h3.hess.P00.10                                                                                                                                                                                                                                  
 Symmetry group is C4V
        0.15000  2.56943E-02    x=   0.0000   0.0000  -2.2322   0.0000   0.0000   0.1219   0.0000   0.0000   2.1103
                 1.70979E-02   dx=   0.0000   0.0000   0.5326   0.0000   0.0000  -0.8023   0.0000   0.0000   0.2696
          save file, system command=  cp ./h3.movecs ./h3.movecs.P00.15                                                                                                                                                                                                                              
          save file, system command=  cp ./h3.hess ./h3.hess.P00.15                                                                                                                                                                                                                                  
 Symmetry group is C4V
        0.20000  2.47546E-02    x=   0.0000   0.0000  -2.2600   0.0000   0.0000   0.1616   0.0000   0.0000   2.0984
                 2.02209E-02   dx=   0.0000   0.0000   0.5834   0.0000   0.0000  -0.7864   0.0000   0.0000   0.2030
          save file, system command=  cp ./h3.movecs ./h3.movecs.P00.20                                                                                                                                                                                                                              
          save file, system command=  cp ./h3.hess ./h3.hess.P00.20                                                                                                                                                                                                                                  
 Symmetry group is C4V
        0.25000  2.36969E-02    x=   0.0000   0.0000  -2.2906   0.0000   0.0000   0.2003   0.0000   0.0000   2.0902
                 2.18490E-02   dx=   0.0000   0.0000   0.6390   0.0000   0.0000  -0.7597   0.0000   0.0000   0.1206
          save file, system command=  cp ./h3.movecs ./h3.movecs.P00.25                                                                                                                                                                                                                              
          save file, system command=  cp ./h3.hess ./h3.hess.P00.25                                                                                                                                                                                                                                  
 Symmetry group is C4V
        0.30000  2.25883E-02    x=   0.0000   0.0000  -2.3240   0.0000   0.0000   0.2374   0.0000   0.0000   2.0866
                 2.23359E-02   dx=   0.0000   0.0000   0.6942   0.0000   0.0000  -0.7193   0.0000   0.0000   0.0251
          save file, system command=  cp ./h3.movecs ./h3.movecs.P00.30                                                                                                                                                                                                                              
          save file, system command=  cp ./h3.hess ./h3.hess.P00.30                                                                                                                                                                                                                                  
 Symmetry group is C4V
        0.35000  2.14737E-02    x=   0.0000   0.0000  -2.3599   0.0000   0.0000   0.2721   0.0000   0.0000   2.0879
                 2.21803E-02   dx=   0.0000   0.0000   0.7409   0.0000   0.0000  -0.6676   0.0000   0.0000  -0.0733
          save file, system command=  cp ./h3.movecs ./h3.movecs.P00.35                                                                                                                                                                                                                              
          save file, system command=  cp ./h3.hess ./h3.hess.P00.35                                                                                                                                                                                                                                  
 Symmetry group is C4V
        0.40000  2.03746E-02    x=   0.0000   0.0000  -2.3979   0.0000   0.0000   0.3040   0.0000   0.0000   2.0939
                 2.17675E-02   dx=   0.0000   0.0000   0.7736   0.0000   0.0000  -0.6129   0.0000   0.0000  -0.1607
          save file, system command=  cp ./h3.movecs ./h3.movecs.P00.40                                                                                                                                                                                                                              
          save file, system command=  cp ./h3.hess ./h3.hess.P00.40                                                                                                                                                                                                                                  
 Symmetry group is C4V
        0.45000  1.92988E-02    x=   0.0000   0.0000  -2.4371   0.0000   0.0000   0.3334   0.0000   0.0000   2.1037
                 2.12644E-02   dx=   0.0000   0.0000   0.7931   0.0000   0.0000  -0.5645   0.0000   0.0000  -0.2286
          save file, system command=  cp ./h3.movecs ./h3.movecs.P00.45                                                                                                                                                                                                                              
          save file, system command=  cp ./h3.hess ./h3.hess.P00.45                                                                                                                                                                                                                                  
 Symmetry group is C4V
        0.50000  1.82496E-02    x=   0.0000   0.0000  -2.4770   0.0000   0.0000   0.3606   0.0000   0.0000   2.1164
                 2.07042E-02   dx=   0.0000   0.0000   0.8036   0.0000   0.0000  -0.5270   0.0000   0.0000  -0.2766
          save file, system command=  cp ./h3.movecs ./h3.movecs.P00.50                                                                                                                                                                                                                              
          save file, system command=  cp ./h3.hess ./h3.hess.P00.50                                                                                                                                                                                                                                  


 Sort data in file 30 so points along MEP have the reaction coordinate in ascending order.
 Also calculate the values of the reaction coordinate at the reactant and product geometries
  and shift energies so reactant v is zero.

 Summary of sorted data (all units are atomic)
     R = reactants, P = products, * = saddle point or starting geometry

         s           V               x (mass weighted)
 R   -187.13093  0.00000E+00         0.0000   0.0000 -78.2806   0.0000   0.0000 -76.5799   0.0000   0.0000 154.8605
 P    187.13093  0.00000E+00         0.0000   0.0000-154.8605   0.0000   0.0000  76.5799   0.0000   0.0000  78.2806
 *      0.00000  2.70840E-02         0.0000   0.0000  -2.1620   0.0000   0.0000   0.0000   0.0000   0.0000   2.1620
  
       -0.50000  1.82496E-02         0.0000   0.0000  -2.1164   0.0000   0.0000  -0.3606   0.0000   0.0000   2.4770
       -0.45000  1.92988E-02         0.0000   0.0000  -2.1037   0.0000   0.0000  -0.3334   0.0000   0.0000   2.4371
       -0.40000  2.03746E-02         0.0000   0.0000  -2.0939   0.0000   0.0000  -0.3040   0.0000   0.0000   2.3979
       -0.35000  2.14736E-02         0.0000   0.0000  -2.0879   0.0000   0.0000  -0.2721   0.0000   0.0000   2.3599
       -0.30000  2.25883E-02         0.0000   0.0000  -2.0866   0.0000   0.0000  -0.2374   0.0000   0.0000   2.3240
       -0.25000  2.36969E-02         0.0000   0.0000  -2.0902   0.0000   0.0000  -0.2003   0.0000   0.0000   2.2906
       -0.20000  2.47546E-02         0.0000   0.0000  -2.0984   0.0000   0.0000  -0.1616   0.0000   0.0000   2.2600
       -0.15000  2.56943E-02         0.0000   0.0000  -2.1103   0.0000   0.0000  -0.1219   0.0000   0.0000   2.2322
       -0.10000  2.64389E-02         0.0000   0.0000  -2.1252   0.0000   0.0000  -0.0815   0.0000   0.0000   2.2067
       -0.05000  2.69183E-02         0.0000   0.0000  -2.1426   0.0000   0.0000  -0.0408   0.0000   0.0000   2.1834
        0.05000  2.69183E-02         0.0000   0.0000  -2.1834   0.0000   0.0000   0.0408   0.0000   0.0000   2.1426
        0.10000  2.64389E-02         0.0000   0.0000  -2.2067   0.0000   0.0000   0.0815   0.0000   0.0000   2.1252
        0.15000  2.56943E-02         0.0000   0.0000  -2.2322   0.0000   0.0000   0.1219   0.0000   0.0000   2.1103
        0.20000  2.47546E-02         0.0000   0.0000  -2.2600   0.0000   0.0000   0.1616   0.0000   0.0000   2.0984
        0.25000  2.36969E-02         0.0000   0.0000  -2.2906   0.0000   0.0000   0.2003   0.0000   0.0000   2.0902
        0.30000  2.25883E-02         0.0000   0.0000  -2.3240   0.0000   0.0000   0.2374   0.0000   0.0000   2.0866
        0.35000  2.14737E-02         0.0000   0.0000  -2.3599   0.0000   0.0000   0.2721   0.0000   0.0000   2.0879
        0.40000  2.03746E-02         0.0000   0.0000  -2.3979   0.0000   0.0000   0.3040   0.0000   0.0000   2.0939
        0.45000  1.92988E-02         0.0000   0.0000  -2.4371   0.0000   0.0000   0.3334   0.0000   0.0000   2.1037
        0.50000  1.82496E-02         0.0000   0.0000  -2.4770   0.0000   0.0000   0.3606   0.0000   0.0000   2.1164


 Summary of MEP data
     R = reactants, P = products, * = saddle point or starting geometry

  Cartesian coordinates, x

        s (au)   V (kcal/mol)        x (Angstroms)
 R   -187.13093  0.00000E+00
 P    187.13093  0.00000E+00
 *      0.00000  1.69954E+01         0.0000   0.0000  -0.9342   0.0000   0.0000   0.0000   0.0000   0.0000   0.9342
       -0.50000  1.14518E+01         0.0000   0.0000  -0.9145   0.0000   0.0000  -0.1558   0.0000   0.0000   1.0703
       -0.45000  1.21102E+01         0.0000   0.0000  -0.9090   0.0000   0.0000  -0.1440   0.0000   0.0000   1.0530
       -0.40000  1.27852E+01         0.0000   0.0000  -0.9047   0.0000   0.0000  -0.1314   0.0000   0.0000   1.0361
       -0.35000  1.34749E+01         0.0000   0.0000  -0.9021   0.0000   0.0000  -0.1175   0.0000   0.0000   1.0197
       -0.30000  1.41744E+01         0.0000   0.0000  -0.9016   0.0000   0.0000  -0.1026   0.0000   0.0000   1.0041
       -0.25000  1.48700E+01         0.0000   0.0000  -0.9031   0.0000   0.0000  -0.0866   0.0000   0.0000   0.9897
       -0.20000  1.55337E+01         0.0000   0.0000  -0.9067   0.0000   0.0000  -0.0698   0.0000   0.0000   0.9765
       -0.15000  1.61234E+01         0.0000   0.0000  -0.9118   0.0000   0.0000  -0.0527   0.0000   0.0000   0.9645
       -0.10000  1.65907E+01         0.0000   0.0000  -0.9183   0.0000   0.0000  -0.0352   0.0000   0.0000   0.9535
       -0.05000  1.68915E+01         0.0000   0.0000  -0.9258   0.0000   0.0000  -0.0176   0.0000   0.0000   0.9434
        0.05000  1.68915E+01         0.0000   0.0000  -0.9434   0.0000   0.0000   0.0176   0.0000   0.0000   0.9258
        0.10000  1.65907E+01         0.0000   0.0000  -0.9535   0.0000   0.0000   0.0352   0.0000   0.0000   0.9183
        0.15000  1.61234E+01         0.0000   0.0000  -0.9645   0.0000   0.0000   0.0527   0.0000   0.0000   0.9118
        0.20000  1.55337E+01         0.0000   0.0000  -0.9765   0.0000   0.0000   0.0698   0.0000   0.0000   0.9067
        0.25000  1.48700E+01         0.0000   0.0000  -0.9897   0.0000   0.0000   0.0866   0.0000   0.0000   0.9031
        0.30000  1.41744E+01         0.0000   0.0000  -1.0041   0.0000   0.0000   0.1026   0.0000   0.0000   0.9016
        0.35000  1.34749E+01         0.0000   0.0000  -1.0197   0.0000   0.0000   0.1175   0.0000   0.0000   0.9021
        0.40000  1.27852E+01         0.0000   0.0000  -1.0361   0.0000   0.0000   0.1314   0.0000   0.0000   0.9047
        0.45000  1.21102E+01         0.0000   0.0000  -1.0530   0.0000   0.0000   0.1440   0.0000   0.0000   0.9090
        0.50000  1.14518E+01         0.0000   0.0000  -1.0703   0.0000   0.0000   0.1558   0.0000   0.0000   0.9145


  Frequencies

        s (au)                      frequencies (cm^-1)
 R   -187.13093                     4657.16
 P    187.13093                     4657.16
 *      0.00000                     2054.91  1121.41  1121.41 -2292.04
  
       -0.50000                     3916.32   578.10   578.10
       -0.45000                     3761.99   645.16   645.16
       -0.40000                     3560.05   721.63   721.63
       -0.35000                     3304.06   804.68   804.68
       -0.30000                     3009.80   887.84   887.84
       -0.25000                     2717.55   963.02   963.02
       -0.20000                     2467.53  1024.22  1024.22
       -0.15000                     2278.62  1069.33  1069.33
       -0.10000                     2151.08  1099.26  1099.26
       -0.05000                     2078.42  1116.04  1116.04
        0.05000                     2078.41  1116.04  1116.04
        0.10000                     2151.12  1099.26  1099.26
        0.15000                     2278.68  1069.33  1069.33
        0.20000                     2467.58  1024.21  1024.21
        0.25000                     2717.58   963.02   963.02
        0.30000                     3009.80   887.84   887.84
        0.35000                     3304.03   804.68   804.68
        0.40000                     3560.02   721.63   721.63
        0.45000                     3761.96   645.15   645.15
        0.50000                     3916.28   578.09   578.09
 drdy_NWChem has finished correctly, bye !

 Task  times  cpu:       61.6s     wall:       80.5s
