 argument  1 = dft_hyperf_zno6bq.nw
 


============================== echo of input deck ==============================
echo
start dft_zorahyperf_zno6bq
title dft_zorahyperf_zno6bq

charge -10
geometry
#symmetry c4
zn 0. 0. 0.
O  2. 0. 0
O1 -2. 0. 0
O  0. 2. 0.
O1  0. -2. 0.
O  0. 0. 2.1
O1  0. 0. -2.1
bq_zn  4.  0.  0.  charge 1d-20
bq_zn -4.  0.  0.  charge 1d-20
bq_zn  0.  4.  0.  charge 1d-20
bq_zn  0. -4.  0.  charge 1d-20
bq_zn  0.  0. -4.2  charge 1d-20
bq_zn  0.  0.  4.2  charge 1d-20
end

basis bse spherical
zn library stuttgart_rsc_1997
O library def2-svp
end

ecp bse
zn library stuttgart_rsc_1997
bq_zn nelec 10
bq_zn ul
2       1.000000000            0.000000000
bq_zn S
2      34.150000000          399.987282000
2      14.590000000           85.485655000
bq_zn P
2      39.780000000          277.148960000
2      14.950000000           69.052205000
bq_zn D
2      43.800000000          -34.149349000
2      14.980000000           -3.291831000
end


dft
 direct
 mult 3
 xc pbe0
 grid fine
 convergence energy 1d-8 lshift 0.
 maxiter 99
end
task dft
set dft:no_prune t
relativistic
 zora on
 zora:cutoff_NMR 1d-8
 zora:cutoff 1d-30
end

property
 hyperfine 1 1
 gshift
end

task dft property
================================================================================


                                         
                                         
 
 
             Northwest Computational Chemistry Package (NWChem) 7.3.1
             --------------------------------------------------------
 
 
                    Environmental Molecular Sciences Laboratory
                       Pacific Northwest National Laboratory
                                Richland, WA 99352
 
                              Copyright (c) 1994-2025
                       Pacific Northwest National Laboratory
                            Battelle Memorial Institute
 
             NWChem is an open-source computational chemistry package
                        distributed under the terms of the
                      Educational Community License (ECL) 2.0
             A copy of the license is included with this distribution
                              in the LICENSE.TXT file
 
                                  ACKNOWLEDGMENT
                                  --------------

            This software and its documentation were developed at the
            EMSL at Pacific Northwest National Laboratory, a multiprogram
            national laboratory, operated for the U.S. Department of Energy
            by Battelle under Contract Number DE-AC05-76RL01830. Support
            for this work was provided by the Department of Energy Office
            of Biological and Environmental Research, Office of Basic
            Energy Sciences, and the Office of Advanced Scientific Computing.


           Job information
           ---------------

    hostname        = s1.emsl.pnl.gov
    program         = /opt/nwchem/bin/nwchem
    date            = Fri Jan  2 16:30:51 2026

    compiled        = Sat_Dec_27_08:50:25_2025
    source          = /nwchem
    nwchem branch   = 7.3.1
    nwchem revision = v7.2.0-beta1-1766-g4550398086
    ga revision     = 5.9.2
    use scalapack   = T
    input           = dft_hyperf_zno6bq.nw
    prefix          = dft_zorahyperf_zno6bq.
    data base       = ./dft_zorahyperf_zno6bq.db
    status          = startup
    nproc           =       35
    time left       =     -1s



           Memory information
           ------------------

    heap     =    142686106 doubles =     1088.6 Mbytes
    stack    =    142686107 doubles =     1088.6 Mbytes
    global   =     81534919 doubles =      622.1 Mbytes (distinct from heap & stack)
    total    =    366907132 doubles =     2799.3 Mbytes
    verify   = yes
    hardfail = no 


           Directory information
           ---------------------
 
  0 permanent = .
  0 scratch   = /big_scratch
 
 
 
 
                                NWChem Input Module
                                -------------------
 
 
                               dft_zorahyperf_zno6bq
                               ---------------------

 Scaling coordinates for geometry "geometry" by  1.889725989
 (inverse scale =  0.529177249)

 C1  symmetry detected

          ------
          auto-z
          ------
  Looking for out-of-plane bends
  no constraints, skipping   0.000000000000000E+000
  no constraints, skipping   0.000000000000000E+000
 
 
                             Geometry "geometry" -> ""
                             -------------------------
 
 Output coordinates in angstroms (scale by  1.889725989 to convert to a.u.)
 
  No.       Tag          Charge          X              Y              Z
 ---- ---------------- ---------- -------------- -------------- --------------
    1 zn                  30.0000     0.00000000     0.00000000     0.00000000
    2 O                    8.0000     2.00000000     0.00000000     0.00000000
    3 O1                   8.0000    -2.00000000     0.00000000     0.00000000
    4 O                    8.0000     0.00000000     0.00000000    -2.00000000
    5 O1                   8.0000     0.00000000     0.00000000     2.00000000
    6 O                    8.0000     0.00000000     2.10000000     0.00000000
    7 O1                   8.0000     0.00000000    -2.10000000     0.00000000
    8 bq_zn                0.0000     4.00000000     0.00000000     0.00000000
    9 bq_zn                0.0000    -4.00000000     0.00000000     0.00000000
   10 bq_zn                0.0000     0.00000000     0.00000000    -4.00000000
   11 bq_zn                0.0000     0.00000000     0.00000000     4.00000000
   12 bq_zn                0.0000     0.00000000    -4.20000000     0.00000000
   13 bq_zn                0.0000     0.00000000     4.20000000     0.00000000
 
      Atomic Mass 
      ----------- 
 
      zn                63.929100
      O                 15.994910
      O1                15.994910
 

 Effective nuclear repulsion energy (a.u.)     541.2800173786

            Nuclear Dipole moment (a.u.) 
            ----------------------------
        X                 Y               Z
 ---------------- ---------------- ----------------
     0.0000000000     0.0000000000     0.0000000000
 


                                Z-matrix (autoz)
                                -------- 

 Units are Angstrom for bonds and degrees for angles
 
      Type          Name      I     J     K     L     M      Value
      ----------- --------  ----- ----- ----- ----- ----- ----------
    1 Stretch                  1     2                       2.00000
    2 Stretch                  1     3                       2.00000
    3 Stretch                  1     4                       2.00000
    4 Stretch                  1     5                       2.00000
    5 Stretch                  1     6                       2.10000
    6 Stretch                  1     7                       2.10000
    7 Stretch                  2     8                       2.00000
    8 Stretch                  3     9                       2.00000
    9 Stretch                  4    10                       2.00000
   10 Stretch                  5    11                       2.00000
   11 Stretch                  6    13                       2.10000
   12 Stretch                  7    12                       2.10000
   13 Bend                     2     1     4                90.00000
   14 Bend                     2     1     5                90.00000
   15 Bend                     2     1     6                90.00000
   16 Bend                     2     1     7                90.00000
   17 Bend                     3     1     4                90.00000
   18 Bend                     3     1     5                90.00000
   19 Bend                     3     1     6                90.00000
   20 Bend                     3     1     7                90.00000
   21 Bend                     4     1     6                90.00000
   22 Bend                     4     1     7                90.00000
   23 Bend                     5     1     6                90.00000
   24 Bend                     5     1     7                90.00000
   25 Bend                     8     1     4                90.00000
   26 Bend                     8     1     5                90.00000
   27 Bend                     8     1     6                90.00000
   28 Bend                     8     1     7                90.00000
   29 Bend                     9     1     4                90.00000
   30 Bend                     9     1     5                90.00000
   31 Bend                     9     1     6                90.00000
   32 Bend                     9     1     7                90.00000
   33 Bend                    10     1     2                90.00000
   34 Bend                    10     1     3                90.00000
   35 Bend                    10     1     6                90.00000
   36 Bend                    10     1     7                90.00000
   37 Bend                    11     1     2                90.00000
   38 Bend                    11     1     3                90.00000
   39 Bend                    11     1     6                90.00000
   40 Bend                    11     1     7                90.00000
   41 Bend                    12     1     2                90.00000
   42 Bend                    12     1     3                90.00000
   43 Bend                    12     1     4                90.00000
   44 Bend                    12     1     5                90.00000
   45 Bend                    13     1     2                90.00000
   46 Bend                    13     1     3                90.00000
   47 Bend                    13     1     4                90.00000
   48 Bend                    13     1     5                90.00000
   49 Torsion                  1     2     4    10         180.00000
   50 Torsion                  1     2     5    11         180.00000
   51 Torsion                  1     2     6    13         180.00000
   52 Torsion                  1     2     7    12         180.00000
   53 Torsion                  1     3     4    10         180.00000
   54 Torsion                  1     3     5    11         180.00000
   55 Torsion                  1     3     6    13         180.00000
   56 Torsion                  1     3     7    12         180.00000
   57 Torsion                  1     4     2     8         180.00000
   58 Torsion                  1     4     3     9         180.00000
   59 Torsion                  1     4     6    13         180.00000
   60 Torsion                  1     4     7    12         180.00000
   61 Torsion                  1     5     2     8         180.00000
   62 Torsion                  1     5     3     9         180.00000
   63 Torsion                  1     5     6    13         180.00000
   64 Torsion                  1     5     7    12         180.00000
   65 Torsion                  1     6     2     8         180.00000
   66 Torsion                  1     6     3     9         180.00000
   67 Torsion                  1     6     4    10         180.00000
   68 Torsion                  1     6     5    11         180.00000
   69 Torsion                  1     7     2     8         180.00000
   70 Torsion                  1     7     3     9         180.00000
   71 Torsion                  1     7     4    10         180.00000
   72 Torsion                  1     7     5    11         180.00000
 
 
            XYZ format geometry
            -------------------
    13
 geometry
 zn                    0.00000000     0.00000000     0.00000000
 O                     2.00000000     0.00000000     0.00000000
 O1                   -2.00000000     0.00000000     0.00000000
 O                     0.00000000     0.00000000    -2.00000000
 O1                    0.00000000     0.00000000     2.00000000
 O                     0.00000000     2.10000000     0.00000000
 O1                    0.00000000    -2.10000000     0.00000000
 bq_zn                 4.00000000     0.00000000     0.00000000
 bq_zn                -4.00000000     0.00000000     0.00000000
 bq_zn                 0.00000000     0.00000000    -4.00000000
 bq_zn                 0.00000000     0.00000000     4.00000000
 bq_zn                 0.00000000    -4.20000000     0.00000000
 bq_zn                 0.00000000     4.20000000     0.00000000
 
 ==============================================================================
                                internuclear distances
 ------------------------------------------------------------------------------
       center one      |      center two      | atomic units |  angstroms
 ------------------------------------------------------------------------------
    2 O                |   1 zn               |     3.77945  |     2.00000
    3 O1               |   1 zn               |     3.77945  |     2.00000
    4 O                |   1 zn               |     3.77945  |     2.00000
    5 O1               |   1 zn               |     3.77945  |     2.00000
    8 bq_zn            |   2 O                |     3.77945  |     2.00000
    9 bq_zn            |   3 O1               |     3.77945  |     2.00000
   10 bq_zn            |   4 O                |     3.77945  |     2.00000
   11 bq_zn            |   5 O1               |     3.77945  |     2.00000
   12 bq_zn            |   7 O1               |     3.96842  |     2.10000
   13 bq_zn            |   6 O                |     3.96842  |     2.10000
 ------------------------------------------------------------------------------
                         number of included internuclear distances:         10
 ==============================================================================



 ==============================================================================
                                 internuclear angles
 ------------------------------------------------------------------------------
        center 1       |       center 2       |       center 3       |  degrees
 ------------------------------------------------------------------------------
    2 O                |   1 zn               |   3 O1               |   180.00
    2 O                |   1 zn               |   4 O                |    90.00
    2 O                |   1 zn               |   5 O1               |    90.00
    3 O1               |   1 zn               |   4 O                |    90.00
    3 O1               |   1 zn               |   5 O1               |    90.00
    4 O                |   1 zn               |   5 O1               |   180.00
    1 zn               |   2 O                |   8 bq_zn            |   180.00
    1 zn               |   3 O1               |   9 bq_zn            |   180.00
    1 zn               |   4 O                |  10 bq_zn            |   180.00
    1 zn               |   5 O1               |  11 bq_zn            |   180.00
 ------------------------------------------------------------------------------
                            number of included internuclear angles:         10
 ==============================================================================



  library name resolved from: environment
  library file name is: </opt/nwchem/share///libraries/>
  
 new library /opt/nwchem/share///libraries.bse/
                      Basis "ao basis" -> "" (spherical)
                      -----
  zn (Zinc)
  ---------
            Exponent  Coefficients 
       -------------- ---------------------------------------------------------
  1 S  3.03241270E+01  0.219143
  1 S  1.63166820E+01 -0.232556
  1 S  1.14081480E+01 -0.954685
 
  2 S  2.56949200E+00  1.000000
 
  3 S  1.06259500E+00  1.000000
 
  4 S  1.51553000E-01  1.000000
 
  5 S  5.27470000E-02  1.000000
 
  6 S  1.00000000E-02  1.000000
 
  7 P  1.11824980E+02  0.023277
  7 P  1.91319100E+01 -1.009539
 
  8 P  5.46883800E+00  0.320151
  8 P  2.50567500E+00  0.718085
 
  9 P  9.41868000E-01  1.000000
 
 10 P  1.71131000E-01  1.000000
 
 11 P  4.99860000E-02  1.000000
 
 12 D  4.46456290E+01  0.047249
 12 D  1.34383770E+01  0.218926
 12 D  4.68200000E+00  0.452512
 12 D  1.60321100E+00  0.518576
 
 13 D  4.82766000E-01  1.000000
 
 14 D  1.10000000E-01  1.000000
 
  O (Oxygen)
  ----------
            Exponent  Coefficients 
       -------------- ---------------------------------------------------------
  1 S  2.26617678E+03 -0.005343
  1 S  3.40870102E+02 -0.039890
  1 S  7.73631352E+01 -0.178539
  1 S  2.14796449E+01 -0.464277
  1 S  6.65894331E+00 -0.443097
 
  2 S  8.09759757E-01  1.000000
 
  3 S  2.55307722E-01  1.000000
 
  4 P  1.77215043E+01  0.043395
  4 P  3.86355054E+00  0.230941
  4 P  1.04809209E+00  0.513753
 
  5 P  2.76415444E-01  1.000000
 
  6 D  1.20000000E+00  1.000000
 


 Summary of "ao basis" -> "" (spherical)
 ------------------------------------------------------------------------------
       Tag                 Description            Shells   Functions and Types
 ---------------- ------------------------------  ------  ---------------------
 zn                    stuttgart rsc 1997           14       36   6s5p3d
 O                          def2-svp                 6       14   3s2p1d


  library name resolved from: environment
  library file name is: </opt/nwchem/share///libraries/>
  
 new library /opt/nwchem/share///libraries.bse/

 **** WARNING Zero Coefficient **** on atom "              zn"
 angular momentum value:-1  standard basis set name: "stuttgart rsc 1997"
 input line that generated warning:
   856: 2       1.000000000            0.000000000
  
 Local ECP potential is zero and ignored
  

 **** WARNING Zero Coefficient **** on atom "           bq_zn"
 angular momentum value:-1  standard basis set name: "user specified"
 input line that generated warning:
    32: 2       1.000000000            0.000000000
  
 Local ECP potential is zero and ignored
  
                 ECP       "ecp basis" -> "" (cartesian)
                -----
  zn (Zinc) Replaces    10 electrons
  ----------------------------------
             Channel    R-exponent     Exponent     Coefficients
         ------------ ---------------------------------------------------------
  1 U-s       Both         2.00       34.150000     399.987282
  1 U-s       Both         2.00       14.590000      85.485655
 
  2 U-p       Both         2.00       39.780000     277.148960
  2 U-p       Both         2.00       14.950000      69.052205
 
  3 U-d       Both         2.00       43.800000     -34.149349
  3 U-d       Both         2.00       14.980000      -3.291831
 
  bq_zn
  -----
             Channel    R-exponent     Exponent     Coefficients
         ------------ ---------------------------------------------------------
  1 U-s       Both         2.00       34.150000     399.987282
  1 U-s       Both         2.00       14.590000      85.485655
 
  2 U-p       Both         2.00       39.780000     277.148960
  2 U-p       Both         2.00       14.950000      69.052205
 
  3 U-d       Both         2.00       43.800000     -34.149349
  3 U-d       Both         2.00       14.980000      -3.291831
 
 
                                 NWChem DFT Module
                                 -----------------
 
 
                               dft_zorahyperf_zno6bq
 
 


 Summary of "ao basis" -> "ao basis" (spherical)
 ------------------------------------------------------------------------------
       Tag                 Description            Shells   Functions and Types
 ---------------- ------------------------------  ------  ---------------------
 zn                    stuttgart rsc 1997           14       36   6s5p3d
 O                          def2-svp                 6       14   3s2p1d


  Caching 1-el integrals 
  itol2e modified to match energy
  convergence criterion.
  tol_rho modified to match energy
  convergence criterion.
 
            General Information
            -------------------
          SCF calculation type: DFT
          Wavefunction type:  spin polarized.
          No. of atoms     :    13
          No. of electrons :    18
           Alpha electrons :    10
            Beta electrons :     8
          Charge           :   -10
          Spin multiplicity:     3
          Use of symmetry is: off; symmetry adaption is: off
          Maximum number of iterations:  99
          This is a Direct SCF calculation.
          AO basis - number of functions:   120
                     number of shells:    50
          Convergence on energy requested:  1.00D-08
          Convergence on density requested:  1.00D-05
          Convergence on gradient requested:  5.00D-04
 
              XC Information
              --------------
                         PBE0 Method XC Functional
                     Hartree-Fock (Exact) Exchange  0.250          
          PerdewBurkeErnzerhof Exchange Functional  0.750          
            Perdew 1991 LDA Correlation Functional  1.000 local    
           PerdewBurkeErnz. Correlation Functional  1.000 non-local
 
             Grid Information
             ----------------
          Grid used for XC integration:  fine      
          Radial quadrature: Mura-Knowles        
          Angular quadrature: Lebedev. 
          Tag              B.-S. Rad. Rad. Pts. Rad. Cut. Ang. Pts.
          ---              ---------- --------- --------- ---------
          zn                  1.35      140          16.0       974
          O                   0.60       70          10.0       590
          O1                  0.60       70          10.0       590
          bq_zn               0.00        0           0.0         0
          Grid pruning is: on 
          Number of quadrature shells:   560
          Spatial weights used:  Erf1
 
          Convergence Information
          -----------------------
          Convergence aids based upon iterative change in 
          total energy or number of iterations. 
          Levelshifting, if invoked, occurs when the 
          HOMO/LUMO gap drops below (HL_TOL):  1.00D-02
          DIIS, if invoked, will attempt to extrapolate 
          using up to (NFOCK): 10 stored Fock matrices.

                    Damping( 0%)  Levelshifting(0.0)       DIIS
                  --------------- ------------------- ---------------
          dE  on:    start            ASAP                start   
          dE off:    2 iters         99 iters            99 iters 

 
      Screening Tolerance Information
      -------------------------------
          Density screening/tol_rho:  1.00D-11
          AO Gaussian exp screening on grid/accAOfunc:  18
          CD Gaussian exp screening on grid/accCDfunc:  20
          XC Gaussian exp screening on grid/accXCfunc:  20
          Schwarz screening/accCoul:  1.00D-09

 
      Superposition of Atomic Density Guess
      -------------------------------------
 
 Sum of atomic energies:        -693.02059545

 Renormalizing density from      68.00 to     18
 
      Non-variational initial energy
      ------------------------------

 Total energy =    -423.552135
 1-e energy   =    -347.455156
 2-e energy   =      53.990162
 HOMO         =     -20.650717
 LUMO         =     -20.644858
 
   Time after variat. SCF:      0.8
   Time prior to 1st pass:      0.8

 Grid_pts file          = /big_scratch/dft_zorahyperf_zno6bq.gridpts.00
 Record size in doubles =  12289        No. of grid_pts per rec  =   3070
 Max. records in memory =      7        Max. recs in file   =  28950016


           Memory utilization after 1st SCF pass: 
           Heap Space remaining (MW):       85.61            85609410
          Stack Space remaining (MW):      142.68           142684636

   convergence    iter        energy       DeltaE   RMS-Dens  Diis-err    time
 ---------------- ----- ----------------- --------- --------- ---------  ------
 d= 0,ls=0.0,diis     1   -664.9509085255 -5.35D+02  2.02D-03  2.90D+00     1.0
                                                     2.22D-03  2.68D+00
 d= 0,ls=0.0,diis     2   -665.0844292185 -1.34D-01  4.98D-05  5.28D-04     1.2
                                                     4.86D-05  5.00D-04
 d= 0,ls=0.0,diis     3   -665.0844984074 -6.92D-05  4.31D-06  3.43D-06     1.5
                                                     5.57D-06  4.68D-06
 d= 0,ls=0.0,diis     4   -665.0844992949 -8.88D-07  2.89D-07  1.37D-08     1.7
                                                     3.48D-07  1.97D-08
 d= 0,ls=0.0,diis     5   -665.0844992981 -3.20D-09  2.38D-09  1.05D-12     2.0
                                                     1.90D-09  8.46D-13


         Total DFT energy =     -665.084499298096
      One electron energy =     -612.626964337784
           Coulomb energy =      112.586266148795
    Exchange-Corr. energy =      -34.956660097618
 Nuclear repulsion energy =     -130.087141011489

 Numeric. integr. density =       18.000000108707

     Total iterative time =      1.2s


 
                    DFT Final Alpha Molecular Orbital Analysis
                    ------------------------------------------
 
 Vector    1  Occ=1.000000D+00  E=-2.664165D+01
              MO Center= -8.4D-12, -1.1D-13, -9.1D-05, r^2= 4.0D+00
   Bfn.  Coefficient  Atom+Function         Bfn.  Coefficient  Atom+Function  
  ----- ------------  ---------------      ----- ------------  ---------------
    65      0.702153   4 O  s                79      0.702121   5 O  s         
 
 Vector    2  Occ=1.000000D+00  E=-2.664161D+01
              MO Center= -4.7D-14, -1.1D-13,  9.1D-05, r^2= 4.0D+00
   Bfn.  Coefficient  Atom+Function         Bfn.  Coefficient  Atom+Function  
  ----- ------------  ---------------      ----- ------------  ---------------
    65      0.702234   4 O  s                79     -0.702266   5 O  s         
 
 Vector    3  Occ=1.000000D+00  E=-2.663709D+01
              MO Center= -3.6D-05, -1.1D-13,  2.1D-11, r^2= 4.0D+00
   Bfn.  Coefficient  Atom+Function         Bfn.  Coefficient  Atom+Function  
  ----- ------------  ---------------      ----- ------------  ---------------
    37      0.702131   2 O  s                51      0.702144   3 O  s         
 
 Vector    4  Occ=1.000000D+00  E=-2.663704D+01
              MO Center=  3.6D-05, -1.1D-13, -1.1D-13, r^2= 4.0D+00
   Bfn.  Coefficient  Atom+Function         Bfn.  Coefficient  Atom+Function  
  ----- ------------  ---------------      ----- ------------  ---------------
    37      0.702257   2 O  s                51     -0.702245   3 O  s         
 
 Vector    5  Occ=1.000000D+00  E=-2.649570D+01
              MO Center= -3.8D-14, -7.2D-05, -9.1D-14, r^2= 4.4D+00
   Bfn.  Coefficient  Atom+Function         Bfn.  Coefficient  Atom+Function  
  ----- ------------  ---------------      ----- ------------  ---------------
    93      0.702171   6 O  s               107      0.702195   7 O  s         
 
 Vector    6  Occ=1.000000D+00  E=-2.649564D+01
              MO Center= -3.8D-14,  7.2D-05, -9.2D-14, r^2= 4.4D+00
   Bfn.  Coefficient  Atom+Function         Bfn.  Coefficient  Atom+Function  
  ----- ------------  ---------------      ----- ------------  ---------------
    93      0.702308   6 O  s               107     -0.702284   7 O  s         
 
 Vector    7  Occ=1.000000D+00  E=-2.132456D+01
              MO Center= -8.2D-10, -2.6D-09, -2.5D-09, r^2= 1.1D-01
   Bfn.  Coefficient  Atom+Function         Bfn.  Coefficient  Atom+Function  
  ----- ------------  ---------------      ----- ------------  ---------------
     2      1.236135   1 Zn s                 1      0.480540   1 Zn s         
     3      0.030638   1 Zn s                 4      0.025072   1 Zn s         
    26     -0.025125   1 Zn d  2      
 
 Vector    8  Occ=1.000000D+00  E=-1.941813D+01
              MO Center= -2.5D-10, -7.4D-10,  1.7D-09, r^2= 1.2D-01
   Bfn.  Coefficient  Atom+Function         Bfn.  Coefficient  Atom+Function  
  ----- ------------  ---------------      ----- ------------  ---------------
    12      1.055881   1 Zn pz                9      0.100328   1 Zn pz        
    18      0.029048   1 Zn pz               15     -0.027791   1 Zn pz        
 
 Vector    9  Occ=1.000000D+00  E=-1.941249D+01
              MO Center= -2.5D-10,  1.7D-09, -7.3D-10, r^2= 1.2D-01
   Bfn.  Coefficient  Atom+Function         Bfn.  Coefficient  Atom+Function  
  ----- ------------  ---------------      ----- ------------  ---------------
    11      1.056342   1 Zn py                8      0.100348   1 Zn py        
    14     -0.028493   1 Zn py               17      0.027734   1 Zn py        
 
 Vector   10  Occ=1.000000D+00  E=-1.921079D+01
              MO Center=  4.5D-10, -7.8D-10, -7.7D-10, r^2= 1.2D-01
   Bfn.  Coefficient  Atom+Function         Bfn.  Coefficient  Atom+Function  
  ----- ------------  ---------------      ----- ------------  ---------------
    10      1.051762   1 Zn px                7      0.099812   1 Zn px        
    16      0.027590   1 Zn px        
 
 Vector   11  Occ=0.000000D+00  E=-1.607358D+01
              MO Center=  2.7D-13,  6.9D-10,  7.2D-10, r^2= 1.5D-01
   Bfn.  Coefficient  Atom+Function         Bfn.  Coefficient  Atom+Function  
  ----- ------------  ---------------      ----- ------------  ---------------
    24      0.922071   1 Zn d  0             26      0.496134   1 Zn d  2      
    29     -0.146312   1 Zn d  0             31     -0.074869   1 Zn d  2      
    67      0.045383   4 O  s                81      0.045383   5 O  s         
    73      0.033309   4 O  pz               87     -0.033309   5 O  pz        
    95     -0.028157   6 O  s               109     -0.028157   7 O  s         
 
 Vector   12  Occ=0.000000D+00  E=-1.604894D+01
              MO Center= -4.0D-14,  7.5D-10,  7.4D-10, r^2= 1.5D-01
   Bfn.  Coefficient  Atom+Function         Bfn.  Coefficient  Atom+Function  
  ----- ------------  ---------------      ----- ------------  ---------------
    23      1.040141   1 Zn d -1             28     -0.134569   1 Zn d -1      
    33      0.041733   1 Zn d -1      
 
 Vector   13  Occ=0.000000D+00  E=-1.592437D+01
              MO Center=  2.6D-10,  3.9D-15,  7.9D-10, r^2= 1.5D-01
   Bfn.  Coefficient  Atom+Function         Bfn.  Coefficient  Atom+Function  
  ----- ------------  ---------------      ----- ------------  ---------------
    25      1.039612   1 Zn d  1             30     -0.132237   1 Zn d  1      
    35      0.038723   1 Zn d  1      
 
 Vector   14  Occ=0.000000D+00  E=-1.591977D+01
              MO Center=  2.5D-10,  8.0D-10,  1.4D-14, r^2= 1.5D-01
   Bfn.  Coefficient  Atom+Function         Bfn.  Coefficient  Atom+Function  
  ----- ------------  ---------------      ----- ------------  ---------------
    22      1.039713   1 Zn d -2             27     -0.132853   1 Zn d -2      
    32      0.041193   1 Zn d -2      
 
 Vector   15  Occ=0.000000D+00  E=-1.590274D+01
              MO Center=  3.8D-10,  2.1D-10,  1.6D-10, r^2= 1.5D-01
   Bfn.  Coefficient  Atom+Function         Bfn.  Coefficient  Atom+Function  
  ----- ------------  ---------------      ----- ------------  ---------------
    26      0.921096   1 Zn d  2             24     -0.497210   1 Zn d  0      
    31     -0.143557   1 Zn d  2             29      0.081297   1 Zn d  0      
    39      0.050586   2 O  s                53      0.050586   3 O  s         
    43     -0.036605   2 O  px               57      0.036605   3 O  px        
 
 Vector   16  Occ=0.000000D+00  E=-1.058568D+01
              MO Center= -2.5D-09, -6.9D-09, -7.1D-09, r^2= 4.4D-01
   Bfn.  Coefficient  Atom+Function         Bfn.  Coefficient  Atom+Function  
  ----- ------------  ---------------      ----- ------------  ---------------
     2      2.131130   1 Zn s                 3     -1.888085   1 Zn s         
     1      0.421667   1 Zn s                 4     -0.368706   1 Zn s         
    67      0.057488   4 O  s                81      0.057488   5 O  s         
    39      0.053473   2 O  s                53      0.053473   3 O  s         
    95      0.041420   6 O  s               109      0.041420   7 O  s         
 
 Vector   17  Occ=0.000000D+00  E=-9.915641D+00
              MO Center= -2.0D-10, -6.2D-10,  6.2D-09, r^2= 4.9D-01
   Bfn.  Coefficient  Atom+Function         Bfn.  Coefficient  Atom+Function  
  ----- ------------  ---------------      ----- ------------  ---------------
    15      1.338735   1 Zn pz               12     -0.944174   1 Zn pz        
     9     -0.062193   1 Zn pz               18      0.050047   1 Zn pz        
 
 Vector   18  Occ=0.000000D+00  E=-9.890316D+00
              MO Center= -1.9D-10,  5.8D-09, -6.2D-10, r^2= 4.9D-01
   Bfn.  Coefficient  Atom+Function         Bfn.  Coefficient  Atom+Function  
  ----- ------------  ---------------      ----- ------------  ---------------
    14      1.338858   1 Zn py               11     -0.944103   1 Zn py        
     8     -0.062106   1 Zn py               17      0.053667   1 Zn py        
 
 Vector   19  Occ=0.000000D+00  E=-9.847419D+00
              MO Center=  2.1D-09, -6.7D-10, -6.8D-10, r^2= 4.9D-01
   Bfn.  Coefficient  Atom+Function         Bfn.  Coefficient  Atom+Function  
  ----- ------------  ---------------      ----- ------------  ---------------
    13      1.332819   1 Zn px               10     -0.945552   1 Zn px        
     7     -0.062574   1 Zn px               16      0.062777   1 Zn px        
 
 Vector   20  Occ=0.000000D+00  E=-7.948098D+00
              MO Center=  1.4D-10,  2.1D-11,  1.8D-10, r^2= 1.1D+00
   Bfn.  Coefficient  Atom+Function         Bfn.  Coefficient  Atom+Function  
  ----- ------------  ---------------      ----- ------------  ---------------
    29      1.032825   1 Zn d  0             31     -0.412912   1 Zn d  2      
    24     -0.257351   1 Zn d  0             66      0.112008   4 O  s         
    80      0.112008   5 O  s                26      0.103759   1 Zn d  2      
    67     -0.099578   4 O  s                81     -0.099578   5 O  s         
    38     -0.093715   2 O  s                52     -0.093715   3 O  s         
 
 Vector   21  Occ=0.000000D+00  E=-7.883607D+00
              MO Center=  1.6D-11,  7.5D-10,  9.2D-12, r^2= 1.1D+00
   Bfn.  Coefficient  Atom+Function         Bfn.  Coefficient  Atom+Function  
  ----- ------------  ---------------      ----- ------------  ---------------
    31      1.031859   1 Zn d  2             29      0.414654   1 Zn d  0      
    26     -0.258380   1 Zn d  2              3     -0.121592   1 Zn s         
     4      0.121527   1 Zn s                24     -0.102986   1 Zn d  0      
     2      0.086430   1 Zn s                38      0.084688   2 O  s         
    52      0.084688   3 O  s                94     -0.079362   6 O  s         
 
 Vector   22  Occ=0.000000D+00  E=-7.684815D+00
              MO Center=  3.1D-10, -1.2D-13,  5.7D-10, r^2= 1.1D+00
   Bfn.  Coefficient  Atom+Function         Bfn.  Coefficient  Atom+Function  
  ----- ------------  ---------------      ----- ------------  ---------------
    30      1.097921   1 Zn d  1             25     -0.280663   1 Zn d  1      
    35     -0.100173   1 Zn d  1      
 
 Vector   23  Occ=0.000000D+00  E=-7.675408D+00
              MO Center= -9.0D-14,  3.6D-10,  3.5D-10, r^2= 1.1D+00
   Bfn.  Coefficient  Atom+Function         Bfn.  Coefficient  Atom+Function  
  ----- ------------  ---------------      ----- ------------  ---------------
    28      1.099827   1 Zn d -1             23     -0.279418   1 Zn d -1      
    33     -0.106152   1 Zn d -1      
 
 Vector   24  Occ=0.000000D+00  E=-7.660322D+00
              MO Center=  3.7D-10,  6.1D-10, -8.4D-14, r^2= 1.1D+00
   Bfn.  Coefficient  Atom+Function         Bfn.  Coefficient  Atom+Function  
  ----- ------------  ---------------      ----- ------------  ---------------
    27      1.099684   1 Zn d -2             22     -0.280854   1 Zn d -2      
    32     -0.105152   1 Zn d -2      
 
 Vector   25  Occ=0.000000D+00  E=-7.069546D+00
              MO Center= -1.3D-08, -3.0D-09, -4.0D-08, r^2= 2.5D+00
   Bfn.  Coefficient  Atom+Function         Bfn.  Coefficient  Atom+Function  
  ----- ------------  ---------------      ----- ------------  ---------------
     3      1.186296   1 Zn s                 4     -0.973066   1 Zn s         
     2     -0.886045   1 Zn s                66     -0.307234   4 O  s         
    80     -0.307234   5 O  s                38     -0.296136   2 O  s         
    52     -0.296136   3 O  s                70     -0.251403   4 O  pz        
    84      0.251403   5 O  pz               40      0.240929   2 O  px        
 
 Vector   26  Occ=0.000000D+00  E=-7.006085D+00
              MO Center= -5.1D-11, -6.5D-11,  2.9D-08, r^2= 2.9D+00
   Bfn.  Coefficient  Atom+Function         Bfn.  Coefficient  Atom+Function  
  ----- ------------  ---------------      ----- ------------  ---------------
    66      0.498722   4 O  s                80     -0.498722   5 O  s         
    70      0.428619   4 O  pz               84      0.428619   5 O  pz        
    18     -0.299070   1 Zn pz               15      0.250923   1 Zn pz        
    65      0.184185   4 O  s                79     -0.184185   5 O  s         
    12     -0.130448   1 Zn pz               76      0.107999   4 O  d  0      
 
 Vector   27  Occ=0.000000D+00  E=-6.998032D+00
              MO Center=  7.6D-09, -9.1D-11, -8.6D-11, r^2= 2.9D+00
   Bfn.  Coefficient  Atom+Function         Bfn.  Coefficient  Atom+Function  
  ----- ------------  ---------------      ----- ------------  ---------------
    38      0.499257   2 O  s                52     -0.499257   3 O  s         
    40     -0.428828   2 O  px               54     -0.428828   3 O  px        
    16      0.295628   1 Zn px               13     -0.252082   1 Zn px        
    37      0.184388   2 O  s                51     -0.184388   3 O  s         
    10      0.132031   1 Zn px               50      0.093302   2 O  d  2      
 
 Vector   28  Occ=0.000000D+00  E=-6.821409D+00
              MO Center=  5.4D-09, -9.8D-11,  1.1D-08, r^2= 2.9D+00
   Bfn.  Coefficient  Atom+Function         Bfn.  Coefficient  Atom+Function  
  ----- ------------  ---------------      ----- ------------  ---------------
    29      0.381262   1 Zn d  0             38      0.367750   2 O  s         
    52      0.367750   3 O  s                66     -0.362469   4 O  s         
    80     -0.362469   5 O  s                40     -0.325534   2 O  px        
    54      0.325534   3 O  px               70     -0.321750   4 O  pz        
    84      0.321750   5 O  pz               31     -0.220737   1 Zn d  2      
 
 Vector   29  Occ=0.000000D+00  E=-6.766865D+00
              MO Center= -4.5D-11, -2.7D-08, -4.0D-11, r^2= 3.2D+00
   Bfn.  Coefficient  Atom+Function         Bfn.  Coefficient  Atom+Function  
  ----- ------------  ---------------      ----- ------------  ---------------
    94      0.503098   6 O  s               108     -0.503098   7 O  s         
    97     -0.420247   6 O  py              111     -0.420247   7 O  py        
    17      0.364706   1 Zn py               14     -0.262778   1 Zn py        
    93      0.183829   6 O  s               107     -0.183829   7 O  s         
    11      0.130169   1 Zn py              106     -0.085059   6 O  d  2      
 
 Vector   30  Occ=0.000000D+00  E=-6.683187D+00
              MO Center=  3.1D-10,  3.0D-08,  3.0D-10, r^2= 3.1D+00
   Bfn.  Coefficient  Atom+Function         Bfn.  Coefficient  Atom+Function  
  ----- ------------  ---------------      ----- ------------  ---------------
     3      0.511584   1 Zn s                 4     -0.462356   1 Zn s         
    94     -0.455836   6 O  s               108     -0.455836   7 O  s         
    97      0.387533   6 O  py              111     -0.387533   7 O  py        
     2     -0.369968   1 Zn s                31     -0.290626   1 Zn d  2      
    93     -0.169423   6 O  s               107     -0.169423   7 O  s         
 
 Vector   31  Occ=0.000000D+00  E=-6.340080D+00
              MO Center= -1.4D-09, -7.1D-09, -5.0D-09, r^2= 2.1D+00
   Bfn.  Coefficient  Atom+Function         Bfn.  Coefficient  Atom+Function  
  ----- ------------  ---------------      ----- ------------  ---------------
     3      2.026332   1 Zn s                 4     -1.844675   1 Zn s         
     2     -1.457494   1 Zn s                 5      0.238674   1 Zn s         
    94      0.228753   6 O  s               108      0.228753   7 O  s         
     1     -0.226708   1 Zn s                97     -0.206828   6 O  py        
   111      0.206828   7 O  py               66      0.172725   4 O  s         
 
 Vector   32  Occ=0.000000D+00  E=-5.890789D+00
              MO Center= -3.6D-09,  4.3D-09, -8.2D-09, r^2= 2.9D+00
   Bfn.  Coefficient  Atom+Function         Bfn.  Coefficient  Atom+Function  
  ----- ------------  ---------------      ----- ------------  ---------------
    17      1.280164   1 Zn py               14     -0.707188   1 Zn py        
    11      0.321983   1 Zn py               69      0.318393   4 O  py        
    83      0.318393   5 O  py               41      0.306439   2 O  py        
    55      0.306439   3 O  py               95     -0.292578   6 O  s         
   109      0.292578   7 O  s               100      0.181052   6 O  py        
 
 Vector   33  Occ=0.000000D+00  E=-5.857647D+00
              MO Center= -7.9D-09, -9.2D-10,  3.1D-09, r^2= 2.9D+00
   Bfn.  Coefficient  Atom+Function         Bfn.  Coefficient  Atom+Function  
  ----- ------------  ---------------      ----- ------------  ---------------
    18      1.384773   1 Zn pz               15     -0.721385   1 Zn pz        
    42      0.423352   2 O  pz               56      0.423353   3 O  pz        
    67      0.350543   4 O  s                81     -0.350543   5 O  s         
    12      0.325482   1 Zn pz               73      0.198769   4 O  pz        
    87      0.198769   5 O  pz               70      0.139289   4 O  pz        
 
 Vector   34  Occ=0.000000D+00  E=-5.854144D+00
              MO Center=  7.9D-10, -9.1D-10, -2.1D-08, r^2= 2.9D+00
   Bfn.  Coefficient  Atom+Function         Bfn.  Coefficient  Atom+Function  
  ----- ------------  ---------------      ----- ------------  ---------------
    16      1.338428   1 Zn px               13     -0.701563   1 Zn px        
    68      0.444128   4 O  px               82      0.444128   5 O  px        
    39     -0.341248   2 O  s                53      0.341248   3 O  s         
    10      0.318343   1 Zn px               43      0.193432   2 O  px        
    57      0.193432   3 O  px               40      0.133685   2 O  px        
 
 Vector   35  Occ=0.000000D+00  E=-5.751983D+00
              MO Center= -1.0D-09, -1.5D-11, -8.3D-09, r^2= 3.9D+00
   Bfn.  Coefficient  Atom+Function         Bfn.  Coefficient  Atom+Function  
  ----- ------------  ---------------      ----- ------------  ---------------
    68      0.646322   4 O  px               82     -0.646322   5 O  px        
    42      0.248216   2 O  pz               56     -0.248216   3 O  pz        
    77     -0.146422   4 O  d  1             91     -0.146422   5 O  d  1      
    49      0.059056   2 O  d  1             63      0.059056   3 O  d  1      
    30     -0.040295   1 Zn d  1             35      0.038978   1 Zn d  1      
 
 Vector   36  Occ=0.000000D+00  E=-5.751913D+00
              MO Center= -1.3D-11,  3.0D-12, -1.2D-05, r^2= 3.9D+00
   Bfn.  Coefficient  Atom+Function         Bfn.  Coefficient  Atom+Function  
  ----- ------------  ---------------      ----- ------------  ---------------
    69      0.694389   4 O  py               83     -0.694384   5 O  py        
    75      0.155940   4 O  d -1             89      0.155939   5 O  d -1      
    28      0.071371   1 Zn d -1             33     -0.066534   1 Zn d -1      
 
 Vector   37  Occ=0.000000D+00  E=-5.751730D+00
              MO Center= -2.1D-07,  6.3D-12,  1.2D-05, r^2= 3.9D+00
   Bfn.  Coefficient  Atom+Function         Bfn.  Coefficient  Atom+Function  
  ----- ------------  ---------------      ----- ------------  ---------------
    69     -0.487702   4 O  py               83     -0.487708   5 O  py        
    41      0.484997   2 O  py               55      0.484997   3 O  py        
    75     -0.113128   4 O  d -1             89      0.113129   5 O  d -1      
    46     -0.112235   2 O  d -2             60      0.112235   3 O  d -2      
    17      0.031744   1 Zn py        
 
 Vector   38  Occ=0.000000D+00  E=-5.747077D+00
              MO Center=  2.1D-07,  4.6D-12, -1.5D-11, r^2= 3.9D+00
   Bfn.  Coefficient  Atom+Function         Bfn.  Coefficient  Atom+Function  
  ----- ------------  ---------------      ----- ------------  ---------------
    41      0.694440   2 O  py               55     -0.694440   3 O  py        
    46     -0.155704   2 O  d -2             60     -0.155704   3 O  d -2      
    27     -0.071608   1 Zn d -2             32      0.066539   1 Zn d -2      
 
 Vector   39  Occ=0.000000D+00  E=-5.745696D+00
              MO Center= -6.3D-09, -1.5D-11, -2.1D-09, r^2= 3.9D+00
   Bfn.  Coefficient  Atom+Function         Bfn.  Coefficient  Atom+Function  
  ----- ------------  ---------------      ----- ------------  ---------------
    42      0.648672   2 O  pz               56     -0.648672   3 O  pz        
    68     -0.254190   4 O  px               82      0.254190   5 O  px        
    49      0.144097   2 O  d  1             63      0.144097   3 O  d  1      
    30      0.091014   1 Zn d  1             35     -0.088517   1 Zn d  1      
    77      0.053645   4 O  d  1             91      0.053645   5 O  d  1      
 
 Vector   40  Occ=0.000000D+00  E=-5.679975D+00
              MO Center=  1.5D-08, -8.6D-09,  1.3D-09, r^2= 3.5D+00
   Bfn.  Coefficient  Atom+Function         Bfn.  Coefficient  Atom+Function  
  ----- ------------  ---------------      ----- ------------  ---------------
    18      0.955075   1 Zn pz               42     -0.524975   2 O  pz        
    56     -0.524975   3 O  pz               15     -0.512284   1 Zn pz        
    98      0.280439   6 O  pz              112      0.280439   7 O  pz        
    12      0.231622   1 Zn pz               67      0.197954   4 O  s         
    81     -0.197954   5 O  s                49     -0.121863   2 O  d  1      
 
 Vector   41  Occ=0.000000D+00  E=-5.679106D+00
              MO Center=  3.6D-10, -9.4D-09,  3.0D-08, r^2= 3.5D+00
   Bfn.  Coefficient  Atom+Function         Bfn.  Coefficient  Atom+Function  
  ----- ------------  ---------------      ----- ------------  ---------------
    16      0.994424   1 Zn px               13     -0.536091   1 Zn px        
    68     -0.506938   4 O  px               82     -0.506938   5 O  px        
    96      0.293967   6 O  px              110      0.293967   7 O  px        
    10      0.243689   1 Zn px               39     -0.209073   2 O  s         
    53      0.209073   3 O  s                43      0.119189   2 O  px        
 
 Vector   42  Occ=0.000000D+00  E=-5.630293D+00
              MO Center=  3.8D-09,  2.7D-09,  8.8D-09, r^2= 3.2D+00
   Bfn.  Coefficient  Atom+Function         Bfn.  Coefficient  Atom+Function  
  ----- ------------  ---------------      ----- ------------  ---------------
    17      1.138288   1 Zn py               14     -0.648957   1 Zn py        
    41     -0.386181   2 O  py               55     -0.386181   3 O  py        
    69     -0.372799   4 O  py               83     -0.372799   5 O  py        
    11      0.296147   1 Zn py               95     -0.179255   6 O  s         
   109      0.179255   7 O  s                94     -0.160802   6 O  s         
 
 Vector   43  Occ=0.000000D+00  E=-5.583150D+00
              MO Center= -5.1D-12, -7.3D-08, -2.6D-11, r^2= 4.3D+00
   Bfn.  Coefficient  Atom+Function         Bfn.  Coefficient  Atom+Function  
  ----- ------------  ---------------      ----- ------------  ---------------
    98      0.696910   6 O  pz              112     -0.696910   7 O  pz        
   103     -0.144980   6 O  d -1            117     -0.144980   7 O  d -1      
    33      0.072604   1 Zn d -1             28     -0.051326   1 Zn d -1      
   101     -0.025925   6 O  pz              115      0.025925   7 O  pz        
 
 Vector   44  Occ=0.000000D+00  E=-5.583015D+00
              MO Center= -1.4D-11, -6.7D-08, -1.2D-11, r^2= 4.3D+00
   Bfn.  Coefficient  Atom+Function         Bfn.  Coefficient  Atom+Function  
  ----- ------------  ---------------      ----- ------------  ---------------
    96      0.696928   6 O  px              110     -0.696928   7 O  px        
   102     -0.144963   6 O  d -2            116     -0.144963   7 O  d -2      
    32      0.072558   1 Zn d -2             27     -0.051610   1 Zn d -2      
    99     -0.025942   6 O  px              113      0.025942   7 O  px        
 
 Vector   45  Occ=0.000000D+00  E=-5.543630D+00
              MO Center=  2.5D-10,  8.3D-08,  7.7D-10, r^2= 3.9D+00
   Bfn.  Coefficient  Atom+Function         Bfn.  Coefficient  Atom+Function  
  ----- ------------  ---------------      ----- ------------  ---------------
    18      0.740321   1 Zn pz               98     -0.621543   6 O  pz        
   112     -0.621543   7 O  pz               15     -0.412709   1 Zn pz        
    12      0.187740   1 Zn pz               42     -0.153780   2 O  pz        
    56     -0.153780   3 O  pz              103      0.132377   6 O  d -1      
   117     -0.132377   7 O  d -1             66      0.121943   4 O  s         
 
 Vector   46  Occ=0.000000D+00  E=-5.541573D+00
              MO Center=  2.3D-10,  7.7D-08,  7.1D-10, r^2= 3.9D+00
   Bfn.  Coefficient  Atom+Function         Bfn.  Coefficient  Atom+Function  
  ----- ------------  ---------------      ----- ------------  ---------------
    16      0.771642   1 Zn px               96     -0.615878   6 O  px        
   110     -0.615878   7 O  px               13     -0.432092   1 Zn px        
    10      0.197556   1 Zn px               68     -0.155698   4 O  px        
    82     -0.155698   5 O  px              102      0.131160   6 O  d -2      
   116     -0.131160   7 O  d -2             38     -0.124582   2 O  s         
 
 Vector   47  Occ=0.000000D+00  E=-4.941696D+00
              MO Center=  9.1D-12,  1.9D-11, -2.0D-05, r^2= 4.9D+00
   Bfn.  Coefficient  Atom+Function         Bfn.  Coefficient  Atom+Function  
  ----- ------------  ---------------      ----- ------------  ---------------
    66      0.585359   4 O  s                80     -0.585353   5 O  s         
    70     -0.505902   4 O  pz               84     -0.505897   5 O  pz        
    65      0.189692   4 O  s                79     -0.189690   5 O  s         
    76     -0.166382   4 O  d  0             90      0.166381   5 O  d  0      
    67     -0.134396   4 O  s                81      0.134395   5 O  s         
 
 Vector   48  Occ=0.000000D+00  E=-4.941497D+00
              MO Center= -1.6D-08,  1.7D-11,  2.0D-05, r^2= 4.9D+00
   Bfn.  Coefficient  Atom+Function         Bfn.  Coefficient  Atom+Function  
  ----- ------------  ---------------      ----- ------------  ---------------
    66      0.574480   4 O  s                80      0.574485   5 O  s         
    70     -0.506420   4 O  pz               84      0.506424   5 O  pz        
    65      0.184914   4 O  s                79      0.184916   5 O  s         
    67     -0.183568   4 O  s                81     -0.183569   5 O  s         
    34      0.159882   1 Zn d  0             76     -0.160142   4 O  d  0      
 
 Vector   49  Occ=0.000000D+00  E=-4.938215D+00
              MO Center= -4.0D-06,  1.9D-11,  1.9D-11, r^2= 4.9D+00
   Bfn.  Coefficient  Atom+Function         Bfn.  Coefficient  Atom+Function  
  ----- ------------  ---------------      ----- ------------  ---------------
    38      0.584879   2 O  s                52     -0.584880   3 O  s         
    40      0.506252   2 O  px               54      0.506253   3 O  px        
    37      0.189574   2 O  s                51     -0.189574   3 O  s         
    50     -0.144003   2 O  d  2             64      0.144003   3 O  d  2      
    39     -0.134062   2 O  s                53      0.134062   3 O  s         
 
 Vector   50  Occ=0.000000D+00  E=-4.937797D+00
              MO Center=  4.0D-06,  1.9D-11,  3.2D-08, r^2= 4.9D+00
   Bfn.  Coefficient  Atom+Function         Bfn.  Coefficient  Atom+Function  
  ----- ------------  ---------------      ----- ------------  ---------------
    38      0.576816   2 O  s                52      0.576815   3 O  s         
    40      0.506604   2 O  px               54     -0.506603   3 O  px        
    39     -0.196328   2 O  s                53     -0.196328   3 O  s         
    37      0.185087   2 O  s                51      0.185087   3 O  s         
    36      0.151594   1 Zn d  2             50     -0.138567   2 O  d  2      
 
 Vector   51  Occ=0.000000D+00  E=-4.850824D+00
              MO Center=  2.4D-11, -2.0D-06,  2.7D-11, r^2= 5.4D+00
   Bfn.  Coefficient  Atom+Function         Bfn.  Coefficient  Atom+Function  
  ----- ------------  ---------------      ----- ------------  ---------------
    94      0.589201   6 O  s               108      0.589202   7 O  s         
    97      0.515911   6 O  py              111     -0.515912   7 O  py        
    93      0.188487   6 O  s                95     -0.188749   6 O  s         
   107      0.188487   7 O  s               109     -0.188749   7 O  s         
    36     -0.145855   1 Zn d  2            106      0.130251   6 O  d  2      
 
 Vector   52  Occ=0.000000D+00  E=-4.849091D+00
              MO Center=  2.4D-11,  2.0D-06,  2.6D-11, r^2= 5.4D+00
   Bfn.  Coefficient  Atom+Function         Bfn.  Coefficient  Atom+Function  
  ----- ------------  ---------------      ----- ------------  ---------------
    94      0.574270   6 O  s               108     -0.574269   7 O  s         
    97      0.516331   6 O  py              111      0.516330   7 O  py        
    93      0.187232   6 O  s               107     -0.187232   7 O  s         
   106      0.131287   6 O  d  2            120     -0.131287   7 O  d  2      
    95     -0.118110   6 O  s               109      0.118110   7 O  s         
 
 Vector   53  Occ=0.000000D+00  E=-3.722732D+00
              MO Center= -2.8D-09, -2.3D-08, -1.6D-08, r^2= 3.8D+00
   Bfn.  Coefficient  Atom+Function         Bfn.  Coefficient  Atom+Function  
  ----- ------------  ---------------      ----- ------------  ---------------
    95      0.966440   6 O  s               109      0.966440   7 O  s         
    94     -0.782705   6 O  s               108     -0.782705   7 O  s         
    67     -0.589895   4 O  s                81     -0.589895   5 O  s         
   100     -0.589479   6 O  py              114      0.589479   7 O  py        
    31      0.531232   1 Zn d  2             39     -0.461360   2 O  s         
 
 Vector   54  Occ=0.000000D+00  E=-3.696674D+00
              MO Center= -3.1D-08, -3.4D-10, -6.3D-08, r^2= 3.7D+00
   Bfn.  Coefficient  Atom+Function         Bfn.  Coefficient  Atom+Function  
  ----- ------------  ---------------      ----- ------------  ---------------
    39      0.983052   2 O  s                53      0.983052   3 O  s         
    67     -0.917309   4 O  s                81     -0.917309   5 O  s         
    38     -0.750956   2 O  s                52     -0.750956   3 O  s         
    66      0.699206   4 O  s                80      0.699206   5 O  s         
    29      0.581218   1 Zn d  0             43     -0.565376   2 O  px        
 
 Vector   55  Occ=0.000000D+00  E=-3.673521D+00
              MO Center= -2.4D-10, -4.6D-10,  7.6D-08, r^2= 3.7D+00
   Bfn.  Coefficient  Atom+Function         Bfn.  Coefficient  Atom+Function  
  ----- ------------  ---------------      ----- ------------  ---------------
    67      1.761902   4 O  s                81     -1.761902   5 O  s         
    18      1.738804   1 Zn pz               66     -1.051070   4 O  s         
    80      1.051070   5 O  s                73      1.000654   4 O  pz        
    87      1.000654   5 O  pz               70     -0.318881   4 O  pz        
    84     -0.318881   5 O  pz               15     -0.303277   1 Zn pz        
 
 Vector   56  Occ=0.000000D+00  E=-3.670518D+00
              MO Center=  3.4D-08, -4.1D-10, -4.9D-10, r^2= 3.7D+00
   Bfn.  Coefficient  Atom+Function         Bfn.  Coefficient  Atom+Function  
  ----- ------------  ---------------      ----- ------------  ---------------
    39     -1.760701   2 O  s                53      1.760701   3 O  s         
    16      1.736453   1 Zn px               38      1.050783   2 O  s         
    52     -1.050783   3 O  s                43      0.999942   2 O  px        
    57      0.999942   3 O  px               40     -0.318634   2 O  px        
    54     -0.318634   3 O  px               13     -0.303794   1 Zn px        
 
 Vector   57  Occ=0.000000D+00  E=-3.639003D+00
              MO Center= -1.6D-10,  2.0D-08, -5.2D-10, r^2= 3.9D+00
   Bfn.  Coefficient  Atom+Function         Bfn.  Coefficient  Atom+Function  
  ----- ------------  ---------------      ----- ------------  ---------------
    95     -1.529711   6 O  s               109      1.529711   7 O  s         
    17      1.409749   1 Zn py               94      0.986909   6 O  s         
   108     -0.986909   7 O  s               100      0.899873   6 O  py        
   114      0.899873   7 O  py               14     -0.324378   1 Zn py        
    97     -0.323911   6 O  py              111     -0.323911   7 O  py        
 
 Vector   58  Occ=0.000000D+00  E=-3.420714D+00
              MO Center=  2.9D-11,  2.2D-09,  1.7D-09, r^2= 4.0D+00
   Bfn.  Coefficient  Atom+Function         Bfn.  Coefficient  Atom+Function  
  ----- ------------  ---------------      ----- ------------  ---------------
     4      2.459129   1 Zn s                 3     -1.568159   1 Zn s         
    39     -1.069222   2 O  s                53     -1.069222   3 O  s         
    67     -1.066671   4 O  s                81     -1.066671   5 O  s         
     2      0.935492   1 Zn s                95     -0.926353   6 O  s         
   109     -0.926353   7 O  s                38      0.651434   2 O  s         
 
 Vector   59  Occ=0.000000D+00  E=-3.262818D+00
              MO Center= -1.9D-11, -9.2D-10, -1.2D-09, r^2= 4.9D+00
   Bfn.  Coefficient  Atom+Function         Bfn.  Coefficient  Atom+Function  
  ----- ------------  ---------------      ----- ------------  ---------------
    33      1.098363   1 Zn d -1             28     -0.428992   1 Zn d -1      
    69      0.165287   4 O  py               83     -0.165287   5 O  py        
    98     -0.153884   6 O  pz              112      0.153884   7 O  pz        
    23      0.080691   1 Zn d -1             75     -0.080948   4 O  d -1      
    89     -0.080948   5 O  d -1            103     -0.072592   6 O  d -1      
 
 Vector   60  Occ=0.000000D+00  E=-3.260868D+00
              MO Center= -3.4D-10, -9.4D-10, -4.3D-11, r^2= 4.9D+00
   Bfn.  Coefficient  Atom+Function         Bfn.  Coefficient  Atom+Function  
  ----- ------------  ---------------      ----- ------------  ---------------
    32      1.098948   1 Zn d -2             27     -0.429737   1 Zn d -2      
    41     -0.164768   2 O  py               55      0.164768   3 O  py        
    96     -0.154085   6 O  px              110      0.154085   7 O  px        
    22      0.081140   1 Zn d -2             46     -0.080404   2 O  d -2      
    60     -0.080404   3 O  d -2            102     -0.072809   6 O  d -2      
 
 Vector   61  Occ=0.000000D+00  E=-3.228769D+00
              MO Center= -3.4D-10, -2.5D-11, -1.3D-09, r^2= 4.9D+00
   Bfn.  Coefficient  Atom+Function         Bfn.  Coefficient  Atom+Function  
  ----- ------------  ---------------      ----- ------------  ---------------
    35      1.048403   1 Zn d  1             30     -0.426597   1 Zn d  1      
    42      0.172665   2 O  pz               56     -0.172665   3 O  pz        
    68     -0.173412   4 O  px               82      0.173412   5 O  px        
    77     -0.088106   4 O  d  1             91     -0.088106   5 O  d  1      
    49     -0.087296   2 O  d  1             63     -0.087296   3 O  d  1      
 
 Vector   62  Occ=0.000000D+00  E=-2.786379D+00
              MO Center= -1.6D-09,  4.9D-11, -3.2D-09, r^2= 4.9D+00
   Bfn.  Coefficient  Atom+Function         Bfn.  Coefficient  Atom+Function  
  ----- ------------  ---------------      ----- ------------  ---------------
    72     -0.510953   4 O  py               86     -0.510953   5 O  py        
    44      0.508324   2 O  py               58      0.508324   3 O  py        
    41     -0.312578   2 O  py               55     -0.312578   3 O  py        
    69      0.313884   4 O  py               83      0.313884   5 O  py        
    75     -0.249494   4 O  d -1             89      0.249494   5 O  d -1      
 
 Vector   63  Occ=0.000000D+00  E=-2.727973D+00
              MO Center= -3.0D-10, -3.2D-09, -5.0D-09, r^2= 5.1D+00
   Bfn.  Coefficient  Atom+Function         Bfn.  Coefficient  Atom+Function  
  ----- ------------  ---------------      ----- ------------  ---------------
    71      0.562340   4 O  px               85      0.562340   5 O  px        
    99     -0.453499   6 O  px              113     -0.453499   7 O  px        
    68     -0.334005   4 O  px               82     -0.334005   5 O  px        
    96      0.281646   6 O  px              110      0.281646   7 O  px        
    77     -0.272627   4 O  d  1             91      0.272627   5 O  d  1      
 
 Vector   64  Occ=0.000000D+00  E=-2.726688D+00
              MO Center= -2.3D-09, -3.1D-09, -3.7D-10, r^2= 5.1D+00
   Bfn.  Coefficient  Atom+Function         Bfn.  Coefficient  Atom+Function  
  ----- ------------  ---------------      ----- ------------  ---------------
    45      0.561634   2 O  pz               59      0.561634   3 O  pz        
   101     -0.454834   6 O  pz              115     -0.454834   7 O  pz        
    42     -0.333583   2 O  pz               56     -0.333583   3 O  pz        
    98      0.282217   6 O  pz              112      0.282217   7 O  pz        
    49      0.271507   2 O  d  1             63     -0.271507   3 O  d  1      
 
 Vector   65  Occ=0.000000D+00  E=-2.533331D+00
              MO Center=  1.7D-09, -2.5D-11,  3.8D-09, r^2= 4.9D+00
   Bfn.  Coefficient  Atom+Function         Bfn.  Coefficient  Atom+Function  
  ----- ------------  ---------------      ----- ------------  ---------------
    45      0.489291   2 O  pz               59     -0.489291   3 O  pz        
    71      0.491621   4 O  px               85     -0.491621   5 O  px        
    77     -0.323389   4 O  d  1             91     -0.323389   5 O  d  1      
    49      0.321033   2 O  d  1             63      0.321033   3 O  d  1      
    42     -0.311020   2 O  pz               56      0.311020   3 O  pz        
 
 Vector   66  Occ=0.000000D+00  E=-2.508113D+00
              MO Center= -2.1D-11,  9.5D-10,  6.9D-10, r^2= 5.0D+00
   Bfn.  Coefficient  Atom+Function         Bfn.  Coefficient  Atom+Function  
  ----- ------------  ---------------      ----- ------------  ---------------
    72      0.565281   4 O  py               86     -0.565281   5 O  py        
   101      0.424289   6 O  pz              115     -0.424289   7 O  pz        
    75      0.351312   4 O  d -1             89      0.351312   5 O  d -1      
    69     -0.335275   4 O  py               83      0.335275   5 O  py        
    98     -0.281709   6 O  pz              112      0.281709   7 O  pz        
 
 Vector   67  Occ=0.000000D+00  E=-2.505943D+00
              MO Center=  3.0D-10,  7.6D-10, -4.7D-11, r^2= 5.0D+00
   Bfn.  Coefficient  Atom+Function         Bfn.  Coefficient  Atom+Function  
  ----- ------------  ---------------      ----- ------------  ---------------
    44      0.564689   2 O  py               58     -0.564689   3 O  py        
    99     -0.425777   6 O  px              113      0.425777   7 O  px        
    46     -0.349970   2 O  d -2             60     -0.349970   3 O  d -2      
    41     -0.335044   2 O  py               55      0.335044   3 O  py        
    96      0.282152   6 O  px              110     -0.282152   7 O  px        
 
 Vector   68  Occ=0.000000D+00  E=-2.480837D+00
              MO Center= -1.5D-09,  4.9D-11, -3.7D-09, r^2= 5.1D+00
   Bfn.  Coefficient  Atom+Function         Bfn.  Coefficient  Atom+Function  
  ----- ------------  ---------------      ----- ------------  ---------------
    36      2.077585   1 Zn d  2             95      1.739607   6 O  s         
   109      1.739607   7 O  s                34      1.177955   1 Zn d  0      
    39     -0.856813   2 O  s                53     -0.856813   3 O  s         
    67     -0.832266   4 O  s                81     -0.832266   5 O  s         
    94     -0.510225   6 O  s               108     -0.510225   7 O  s         
 
 Vector   69  Occ=0.000000D+00  E=-2.378886D+00
              MO Center= -2.2D-09, -2.5D-09, -4.8D-09, r^2= 5.1D+00
   Bfn.  Coefficient  Atom+Function         Bfn.  Coefficient  Atom+Function  
  ----- ------------  ---------------      ----- ------------  ---------------
    34      2.020614   1 Zn d  0             67     -1.493791   4 O  s         
    81     -1.493791   5 O  s                39      1.475458   2 O  s         
    53      1.475458   3 O  s                36     -1.137329   1 Zn d  2      
    66      0.416181   4 O  s                80      0.416181   5 O  s         
    38     -0.411372   2 O  s                52     -0.411372   3 O  s         
 
 Vector   70  Occ=0.000000D+00  E=-2.342919D+00
              MO Center=  8.5D-10,  7.2D-10,  2.8D-09, r^2= 5.3D+00
   Bfn.  Coefficient  Atom+Function         Bfn.  Coefficient  Atom+Function  
  ----- ------------  ---------------      ----- ------------  ---------------
    17      1.145831   1 Zn py               95     -0.811751   6 O  s         
   109      0.811751   7 O  s                44     -0.514173   2 O  py        
    58     -0.514173   3 O  py               72     -0.510805   4 O  py        
    86     -0.510805   5 O  py               94      0.464097   6 O  s         
   108     -0.464097   7 O  s                14     -0.380981   1 Zn py        
 
 Vector   71  Occ=0.000000D+00  E=-2.324548D+00
              MO Center=  4.4D-10,  1.2D-09, -1.3D-09, r^2= 5.4D+00
   Bfn.  Coefficient  Atom+Function         Bfn.  Coefficient  Atom+Function  
  ----- ------------  ---------------      ----- ------------  ---------------
    18      1.078732   1 Zn pz               67      0.805870   4 O  s         
    81     -0.805870   5 O  s               101     -0.519739   6 O  pz        
   115     -0.519739   7 O  pz               66     -0.443825   4 O  s         
    80      0.443825   5 O  s                45     -0.430615   2 O  pz        
    59     -0.430615   3 O  pz               15     -0.332093   1 Zn pz        
 
 Vector   72  Occ=0.000000D+00  E=-2.323197D+00
              MO Center= -7.3D-10,  1.2D-09,  1.1D-09, r^2= 5.4D+00
   Bfn.  Coefficient  Atom+Function         Bfn.  Coefficient  Atom+Function  
  ----- ------------  ---------------      ----- ------------  ---------------
    16      1.084179   1 Zn px               39     -0.808519   2 O  s         
    53      0.808519   3 O  s                99     -0.521748   6 O  px        
   113     -0.521748   7 O  px               38      0.444621   2 O  s         
    52     -0.444621   3 O  s                71     -0.429939   4 O  px        
    85     -0.429939   5 O  px               13     -0.334992   1 Zn px        
 
 Vector   73  Occ=0.000000D+00  E=-2.216934D+00
              MO Center=  1.8D-10,  9.5D-10, -9.2D-08, r^2= 4.5D+00
   Bfn.  Coefficient  Atom+Function         Bfn.  Coefficient  Atom+Function  
  ----- ------------  ---------------      ----- ------------  ---------------
    74      0.651051   4 O  d -2             88      0.651051   5 O  d -2      
    32      0.398287   1 Zn d -2             99     -0.298294   6 O  px        
   113      0.298294   7 O  px               44     -0.225575   2 O  py        
    58      0.225575   3 O  py              102      0.143551   6 O  d -2      
   116      0.143551   7 O  d -2             96      0.131051   6 O  px        
 
 Vector   74  Occ=0.000000D+00  E=-2.213873D+00
              MO Center= -4.0D-08,  8.7D-10,  3.0D-10, r^2= 4.5D+00
   Bfn.  Coefficient  Atom+Function         Bfn.  Coefficient  Atom+Function  
  ----- ------------  ---------------      ----- ------------  ---------------
    47      0.649877   2 O  d -1             61      0.649877   3 O  d -1      
    33      0.403470   1 Zn d -1            101     -0.301232   6 O  pz        
   115      0.301232   7 O  pz               72      0.226502   4 O  py        
    86     -0.226502   5 O  py              103      0.145648   6 O  d -1      
   117      0.145648   7 O  d -1             98      0.132325   6 O  pz        
 
 Vector   75  Occ=0.000000D+00  E=-2.177258D+00
              MO Center=  4.9D-12,  7.1D-12,  9.1D-08, r^2= 4.4D+00
   Bfn.  Coefficient  Atom+Function         Bfn.  Coefficient  Atom+Function  
  ----- ------------  ---------------      ----- ------------  ---------------
    74      0.707093   4 O  d -2             88     -0.707093   5 O  d -2      
 
 Vector   76  Occ=0.000000D+00  E=-2.175922D+00
              MO Center=  4.0D-13,  6.3D-11, -1.1D-08, r^2= 4.4D+00
   Bfn.  Coefficient  Atom+Function         Bfn.  Coefficient  Atom+Function  
  ----- ------------  ---------------      ----- ------------  ---------------
    78      0.702919   4 O  d  2             92     -0.702919   5 O  d  2      
    49      0.058398   2 O  d  1             63     -0.058398   3 O  d  1      
   103      0.043058   6 O  d -1            117     -0.043058   7 O  d -1      
   101     -0.027907   6 O  pz              115     -0.027907   7 O  pz        
 
 Vector   77  Occ=0.000000D+00  E=-2.173580D+00
              MO Center=  3.9D-08,  5.6D-12,  3.5D-11, r^2= 4.4D+00
   Bfn.  Coefficient  Atom+Function         Bfn.  Coefficient  Atom+Function  
  ----- ------------  ---------------      ----- ------------  ---------------
    47      0.707093   2 O  d -1             61     -0.707093   3 O  d -1      
 
 Vector   78  Occ=0.000000D+00  E=-2.172315D+00
              MO Center= -5.3D-09,  5.9D-11,  7.7D-12, r^2= 4.4D+00
   Bfn.  Coefficient  Atom+Function         Bfn.  Coefficient  Atom+Function  
  ----- ------------  ---------------      ----- ------------  ---------------
    48      0.606125   2 O  d  0             62     -0.606125   3 O  d  0      
    50      0.355952   2 O  d  2             64     -0.355952   3 O  d  2      
    77      0.059016   4 O  d  1             91     -0.059016   5 O  d  1      
   102     -0.043004   6 O  d -2            116      0.043004   7 O  d -2      
    99      0.027347   6 O  px              113      0.027347   7 O  px        
 
 Vector   79  Occ=0.000000D+00  E=-2.115579D+00
              MO Center=  8.0D-09, -2.3D-08,  1.7D-08, r^2= 4.7D+00
   Bfn.  Coefficient  Atom+Function         Bfn.  Coefficient  Atom+Function  
  ----- ------------  ---------------      ----- ------------  ---------------
    34      0.640488   1 Zn d  0             39      0.472755   2 O  s         
    53      0.472755   3 O  s                67     -0.465508   4 O  s         
    81     -0.465508   5 O  s               104      0.406997   6 O  d  0      
   118      0.406997   7 O  d  0             36     -0.383826   1 Zn d  2      
    78      0.359208   4 O  d  2             92      0.359208   5 O  d  2      
 
 Vector   80  Occ=0.000000D+00  E=-2.107820D+00
              MO Center= -2.1D-10, -3.7D-08, -4.7D-10, r^2= 4.8D+00
   Bfn.  Coefficient  Atom+Function         Bfn.  Coefficient  Atom+Function  
  ----- ------------  ---------------      ----- ------------  ---------------
    35      0.702667   1 Zn d  1            105      0.563464   6 O  d  1      
   119      0.563464   7 O  d  1             45      0.360699   2 O  pz        
    59     -0.360699   3 O  pz               71     -0.357425   4 O  px        
    85      0.357425   5 O  px               49      0.252958   2 O  d  1      
    63      0.252958   3 O  d  1             77      0.252755   4 O  d  1      
 
 Vector   81  Occ=0.000000D+00  E=-2.035639D+00
              MO Center= -3.2D-11,  2.3D-08, -7.4D-11, r^2= 4.8D+00
   Bfn.  Coefficient  Atom+Function         Bfn.  Coefficient  Atom+Function  
  ----- ------------  ---------------      ----- ------------  ---------------
   104      0.608000   6 O  d  0            118     -0.608000   7 O  d  0      
   106     -0.350349   6 O  d  2            120      0.350349   7 O  d  2      
    75     -0.059980   4 O  d -1             89      0.059980   5 O  d -1      
    46     -0.058925   2 O  d -2             60      0.058925   3 O  d -2      
 
 Vector   82  Occ=0.000000D+00  E=-2.034571D+00
              MO Center=  3.8D-12,  2.5D-08,  9.2D-12, r^2= 4.8D+00
   Bfn.  Coefficient  Atom+Function         Bfn.  Coefficient  Atom+Function  
  ----- ------------  ---------------      ----- ------------  ---------------
   105      0.707107   6 O  d  1            119     -0.707107   7 O  d  1      
 
 Vector   83  Occ=0.000000D+00  E=-1.948678D+00
              MO Center= -2.4D-08, -1.1D-09, -1.4D-07, r^2= 5.0D+00
   Bfn.  Coefficient  Atom+Function         Bfn.  Coefficient  Atom+Function  
  ----- ------------  ---------------      ----- ------------  ---------------
     5      0.672831   1 Zn s                 4      0.556724   1 Zn s         
     3     -0.550639   1 Zn s                76     -0.527845   4 O  d  0      
    90     -0.527845   5 O  d  0             67     -0.350528   4 O  s         
    81     -0.350528   5 O  s                50     -0.345438   2 O  d  2      
    64     -0.345438   3 O  d  2             95     -0.344996   6 O  s         
 
 Vector   84  Occ=0.000000D+00  E=-1.941935D+00
              MO Center= -2.5D-08,  1.1D-08, -4.5D-08, r^2= 4.8D+00
   Bfn.  Coefficient  Atom+Function         Bfn.  Coefficient  Atom+Function  
  ----- ------------  ---------------      ----- ------------  ---------------
    35      0.519308   1 Zn d  1             77      0.418129   4 O  d  1      
    91      0.418129   5 O  d  1             49      0.415247   2 O  d  1      
    63      0.415247   3 O  d  1            105     -0.376351   6 O  d  1      
   119     -0.376351   7 O  d  1             45      0.124847   2 O  pz        
    59     -0.124847   3 O  pz               71     -0.118288   4 O  px        
 
 Vector   85  Occ=0.000000D+00  E=-1.935256D+00
              MO Center=  2.2D-08, -1.9D-08, -3.3D-07, r^2= 4.8D+00
   Bfn.  Coefficient  Atom+Function         Bfn.  Coefficient  Atom+Function  
  ----- ------------  ---------------      ----- ------------  ---------------
    18      0.832623   1 Zn pz               76      0.575030   4 O  d  0      
    90     -0.575030   5 O  d  0             67      0.378396   4 O  s         
    81     -0.378396   5 O  s                73      0.328016   4 O  pz        
    87      0.328016   5 O  pz               49     -0.320748   2 O  d  1      
    63      0.320748   3 O  d  1             15     -0.243858   1 Zn pz        
 
 Vector   86  Occ=0.000000D+00  E=-1.932946D+00
              MO Center= -3.9D-05, -1.9D-08,  3.9D-08, r^2= 4.8D+00
   Bfn.  Coefficient  Atom+Function         Bfn.  Coefficient  Atom+Function  
  ----- ------------  ---------------      ----- ------------  ---------------
    16      0.822270   1 Zn px               50     -0.498306   2 O  d  2      
    64      0.498320   3 O  d  2             39     -0.375923   2 O  s         
    53      0.375927   3 O  s                77      0.328634   4 O  d  1      
    91     -0.328634   5 O  d  1             43      0.325776   2 O  px        
    57      0.325781   3 O  px               48      0.281142   2 O  d  0      
 
 Vector   87  Occ=0.000000D+00  E=-1.932927D+00
              MO Center=  3.9D-05,  6.0D-10,  4.6D-07, r^2= 4.9D+00
   Bfn.  Coefficient  Atom+Function         Bfn.  Coefficient  Atom+Function  
  ----- ------------  ---------------      ----- ------------  ---------------
    50      0.447195   2 O  d  2             64      0.447180   3 O  d  2      
    76     -0.424250   4 O  d  0             90     -0.424251   5 O  d  0      
    48     -0.297033   2 O  d  0             62     -0.297024   3 O  d  0      
    29      0.198497   1 Zn d  0             40      0.192697   2 O  px        
    54     -0.192690   3 O  px               43     -0.180293   2 O  px        
 
 Vector   88  Occ=0.000000D+00  E=-1.923202D+00
              MO Center=  5.4D-10,  1.6D-08, -3.5D-08, r^2= 4.9D+00
   Bfn.  Coefficient  Atom+Function         Bfn.  Coefficient  Atom+Function  
  ----- ------------  ---------------      ----- ------------  ---------------
    33      0.670327   1 Zn d -1             75      0.506102   4 O  d -1      
    89      0.506102   5 O  d -1            103      0.413845   6 O  d -1      
   117      0.413845   7 O  d -1            101     -0.324908   6 O  pz        
   115      0.324908   7 O  pz               47     -0.210332   2 O  d -1      
    61     -0.210332   3 O  d -1             98      0.166483   6 O  pz        
 
 Vector   89  Occ=0.000000D+00  E=-1.921332D+00
              MO Center= -1.3D-08,  1.6D-08,  1.2D-09, r^2= 4.9D+00
   Bfn.  Coefficient  Atom+Function         Bfn.  Coefficient  Atom+Function  
  ----- ------------  ---------------      ----- ------------  ---------------
    32      0.675521   1 Zn d -2             46      0.505890   2 O  d -2      
    60      0.505890   3 O  d -2            102      0.416317   6 O  d -2      
   116      0.416317   7 O  d -2             99     -0.324821   6 O  px        
   113      0.324821   7 O  px               74     -0.207611   4 O  d -2      
    88     -0.207611   5 O  d -2             96      0.166382   6 O  px        
 
 Vector   90  Occ=0.000000D+00  E=-1.906697D+00
              MO Center=  3.4D-09, -2.7D-08,  3.8D-09, r^2= 5.3D+00
   Bfn.  Coefficient  Atom+Function         Bfn.  Coefficient  Atom+Function  
  ----- ------------  ---------------      ----- ------------  ---------------
   106      0.548251   6 O  d  2            120      0.548251   7 O  d  2      
    36     -0.436943   1 Zn d  2              5      0.402101   1 Zn s         
    95     -0.354073   6 O  s               109     -0.354073   7 O  s         
   104      0.312368   6 O  d  0            118      0.312368   7 O  d  0      
   100      0.254157   6 O  py              114     -0.254157   7 O  py        
 
 Vector   91  Occ=0.000000D+00  E=-1.895724D+00
              MO Center=  7.2D-09,  2.5D-08,  2.3D-08, r^2= 5.0D+00
   Bfn.  Coefficient  Atom+Function         Bfn.  Coefficient  Atom+Function  
  ----- ------------  ---------------      ----- ------------  ---------------
   106      0.414326   6 O  d  2            120     -0.414326   7 O  d  2      
    17      0.400118   1 Zn py               75     -0.363810   4 O  d -1      
    89      0.363810   5 O  d -1             46      0.351849   2 O  d -2      
    60     -0.351849   3 O  d -2            104      0.236641   6 O  d  0      
   118     -0.236641   7 O  d  0             95     -0.211771   6 O  s         
 
 Vector   92  Occ=0.000000D+00  E=-1.813963D+00
              MO Center=  8.4D-10, -1.3D-10,  2.4D-09, r^2= 5.4D+00
   Bfn.  Coefficient  Atom+Function         Bfn.  Coefficient  Atom+Function  
  ----- ------------  ---------------      ----- ------------  ---------------
    75      0.417549   4 O  d -1             89     -0.417549   5 O  d -1      
[...]
    13     -0.413647   1 Zn px               16      0.254816   1 Zn px        
    39     -0.092839   2 O  s                53      0.092839   3 O  s         
    43      0.059196   2 O  px               57      0.059196   3 O  px        
    71     -0.026277   4 O  px               85     -0.026277   5 O  px        
 
 Vector  118  Occ=0.000000D+00  E= 5.055147D+01
              MO Center= -3.9D-14, -2.5D-14,  1.1D-11, r^2= 5.3D-02
   Bfn.  Coefficient  Atom+Function         Bfn.  Coefficient  Atom+Function  
  ----- ------------  ---------------      ----- ------------  ---------------
     9      1.158125   1 Zn pz               12      0.673050   1 Zn pz        
    15     -0.412835   1 Zn pz               18      0.254313   1 Zn pz        
    67      0.092652   4 O  s                81     -0.092652   5 O  s         
    73      0.059076   4 O  pz               87      0.059076   5 O  pz        
    45     -0.026226   2 O  pz               59     -0.026226   3 O  pz        
 
 Vector  119  Occ=0.000000D+00  E= 5.056714D+01
              MO Center= -4.2D-14,  1.1D-11, -2.4D-14, r^2= 5.4D-02
   Bfn.  Coefficient  Atom+Function         Bfn.  Coefficient  Atom+Function  
  ----- ------------  ---------------      ----- ------------  ---------------
     8      1.158327   1 Zn py               11      0.674363   1 Zn py        
    14     -0.415030   1 Zn py               17      0.243521   1 Zn py        
    95     -0.086778   6 O  s               109      0.086778   7 O  s         
   100      0.060435   6 O  py              114      0.060435   7 O  py        
    94      0.028805   6 O  s               108     -0.028805   7 O  s         
 
 Vector  120  Occ=0.000000D+00  E= 7.020893D+01
              MO Center= -2.4D-12, -1.1D-11, -1.1D-11, r^2= 5.5D-02
   Bfn.  Coefficient  Atom+Function         Bfn.  Coefficient  Atom+Function  
  ----- ------------  ---------------      ----- ------------  ---------------
     1      1.507676   1 Zn s                 2      1.414468   1 Zn s         
     3     -0.928413   1 Zn s                 4      0.421309   1 Zn s         
    39     -0.096344   2 O  s                53     -0.096344   3 O  s         
    67     -0.096456   4 O  s                81     -0.096456   5 O  s         
    43      0.066018   2 O  px               57     -0.066018   3 O  px        
 

   alpha - beta orbital overlaps 
   ----------------------------- 


   alpha      1      2      3      4      5      6      7      8      9     10
    beta      1      2      3      4      5      6      7      9     10      8
 overlap   1.000  1.000  1.000  1.000  1.000  1.000  0.999  1.000  1.000  1.000


   alpha     11     12     13     14     15     16     17     18     19     20
    beta     14     15     12     13     11     16     18     19     17     20
 overlap   0.993  1.000  1.000  1.000  0.992  1.000  1.000  1.000  1.000  0.997


   alpha     21     22     23     24     25     26     27     28     29     30
    beta     21     22     23     24     25     26     27     28     29     30
 overlap   0.997  1.000  1.000  1.000  1.000  1.000  1.000  1.000  1.000  1.000


   alpha     31     32     33     34     35     36     37     38     39     40
    beta     31     32     34     33     35     36     37     38     39     41
 overlap   1.000  1.000  0.999  1.000  1.000  1.000  1.000  1.000  1.000  0.999


   alpha     41     42     43     44     45     46     47     48     49     50
    beta     40     42     43     44     45     46     47     48     49     50
 overlap   1.000  1.000  1.000  1.000  0.999  1.000  1.000  1.000  1.000  1.000


   alpha     51     52     53     54     55     56     57     58     59     60
    beta     51     52     53     54     55     56     57     58     59     60
 overlap   1.000  1.000  1.000  1.000  1.000  1.000  1.000  1.000  1.000  1.000


   alpha     61     62     63     64     65     66     67     68     69     70
    beta     61     62     63     64     65     66     67     68     69     70
 overlap   1.000  1.000  1.000  1.000  1.000  1.000  1.000  1.000  1.000  1.000


   alpha     71     72     73     74     75     76     77     78     79     80
    beta     71     72     73     74     75     76     77     78     79     80
 overlap   1.000  1.000  1.000  1.000  1.000  1.000  1.000  1.000  1.000  1.000


   alpha     81     82     83     84     85     86     87     88     89     90
    beta     81     82     83     84     85     87     86     88     89     90
 overlap   1.000  1.000  1.000  1.000  1.000  1.000  1.000  1.000  1.000  1.000


   alpha     91     92     93     94     95     96     97     98     99    100
    beta     91     92     93     94     95     96     98     97     99    100
 overlap   1.000  1.000  1.000  1.000  1.000  1.000  1.000  1.000  1.000  1.000


   alpha    101    102    103    104    105    106    107    108    109    110
    beta    101    102    103    104    105    106    107    108    109    110
 overlap   1.000  1.000  1.000  1.000  1.000  1.000  1.000  1.000  1.000  1.000


   alpha    111    112    113    114    115    116    117    118    119    120
    beta    111    112    113    114    115    116    118    119    117    120
 overlap   1.000  1.000  1.000  1.000  1.000  1.000  1.000  1.000  1.000  1.000


     --------------------------
     Expectation value of S2:  
     --------------------------
      <S2> =      2.0019 (Exact =     2.0000)
 

 center of mass
 --------------
 x =   0.00000000 y =   0.00000000 z =   0.00000000

 moments of inertia (a.u.)
 ------------------
         960.739095236686           0.000000000000           0.000000000000
           0.000000000000         913.901636372590           0.000000000000
           0.000000000000           0.000000000000         960.739095236686
 
     Multipole analysis of the density
     ---------------------------------
 
     L   x y z        total         alpha         beta         nuclear
     -   - - -        -----         -----         ----         -------
     0   0 0 0     50.000000    -10.000000     -8.000000     68.000000
 
     1   1 0 0     -0.000000     -0.000000     -0.000000      0.000000
     1   0 1 0     -0.000000     -0.000000     -0.000000      0.000000
     1   0 0 1     -0.000000     -0.000000     -0.000000      0.000000
 
     2   2 0 0    170.303373    -29.199826    -29.044916    228.548116
     2   1 1 0     -0.000000      0.000000     -0.000000      0.000000
     2   1 0 1     -0.000009      0.000001     -0.000009      0.000000
     2   0 2 0    188.036124    -32.138106    -31.800068    251.974298
     2   0 1 1     -0.000000     -0.000000     -0.000000      0.000000
     2   0 0 2    170.467364    -29.209395    -28.871357    228.548116
 
 
               ZORA NMR Hyperfine
               ------------------
 
 
            Hyperfine Tensor (in au)
            ------------------------
 
nat_slc=   1
 In hnd_hyperfine_zora:: atomnr(  1)=    1
(con,gnu,isonr,const_hfine)(  1,  1)=(    95.52131600,    -0.37636286, 43,   -35.95067541)

 Read ZORA NMR data from ./dft_zorahyperf_zno6bq.zora_nmrhyp

                                NWChem CPHF Module
                                ------------------
 
 
  scftype          =     UHF 
  nalpha           =       10
  nbeta            =        8
  variables        =     1996
  # of vectors     =        3
  tolerance        = 0.10D-03
  level shift      = 0.00D+00
  max iterations   =       50
  max subspace     =       30

 SCF residual:   1.130342802544259E-006


Iterative solution of linear equations
  No. of variables     1996
  No. of equations        3
  Maximum subspace       30
        Iterations       50
       Convergence  1.0D-04
        Start time     10.3


   iter   nsub   residual    time
   ----  ------  --------  ---------
     1      3    3.63D-03      11.3
     2      6    4.80D-04      12.4
     3      9    5.37D-06      13.5

 Wrote CPHF data to ./dft_zorahyperf_zno6bq.zora_hypcphf

NATOMS=  1
NW:(dia,par,dia+par)(1,1,1)=(    -4.01458950      0.00000000     -4.01458950 )
NW:(dia,par,dia+par)(1,2,1)=(    -0.00000204      0.00000000     -0.00000204 )
NW:(dia,par,dia+par)(1,3,1)=(    -0.00032188      0.00000000     -0.00032188 )
NW:(dia,par,dia+par)(2,1,1)=(    -0.00000204      0.00000000     -0.00000204 )
NW:(dia,par,dia+par)(2,2,1)=(     2.02347020      0.00000000      2.02347020 )
NW:(dia,par,dia+par)(2,3,1)=(    -0.00000000      0.00000000     -0.00000000 )
NW:(dia,par,dia+par)(3,1,1)=(    -0.00032188      0.00000000     -0.00032188 )
NW:(dia,par,dia+par)(3,2,1)=(    -0.00000000      0.00000000     -0.00000000 )
NW:(dia,par,dia+par)(3,3,1)=(     2.02190636      0.00000000      2.02190636 )
      Atom:    1  Zn

 ----- A-tensor in atomic units ----         ------------- A (MHz) ------------

 FC, SD terms:
  isotropic    A(au)      0.0103                           A(MHz)     -0.3689
     -4.0146     -0.0000     -0.0003           144.3272      0.0001      0.0116
     -0.0000      2.0235     -0.0000             0.0001    -72.7451      0.0000
     -0.0003     -0.0000      2.0219             0.0116      0.0000    -72.6889

 PSO-Spin-Orbit terms:
  isotropic    A(au)      0.0000                           A(MHz)      0.0000
      0.0000      0.0000      0.0000             0.0000      0.0000      0.0000
      0.0000      0.0000      0.0000             0.0000      0.0000      0.0000
      0.0000      0.0000      0.0000             0.0000      0.0000      0.0000

 Total hyperfine coupling tensor:
  isotropic    A(au)      0.0103                           A(MHz)     -0.3689
     -4.0146     -0.0000     -0.0003           144.3272      0.0001      0.0116
     -0.0000      2.0235     -0.0000             0.0001    -72.7451      0.0000
     -0.0003     -0.0000      2.0219             0.0116      0.0000    -72.6889

 In principal axis representation: total span,skew and asymm
        span        skew       asymm               span        skew       asymm
      6.0381     -0.9995      2.9984          -217.0723     35.9321   -107.7962

 Principal Components and Axis System
        1           2           3                 1           2           3
     -4.0146      2.0219      2.0235           144.3272    -72.6889    -72.7451

1     1.0000     -0.0001     -0.0000
2     0.0000      0.0000      1.0000
3     0.0001      1.0000     -0.0000



 
                  ZORA g-Shift
                  ------------
 
 
             g-Shift Tensor (in ppm)
             -----------------------
 

 Read ZORA NMR data from ./dft_zorahyperf_zno6bq.zora_nmrgshift


 Read ZORA NMR data from ./dft_zorahyperf_zno6bq.zora_nmrgshift_AB

nocc=( 10,  8) nclos=(  0,  0) nvirt=(110,112) scftyp=UHF)
 coeffpol=   2.00000000000000     
                                NWChem CPHF Module
                                ------------------
 
 
  scftype          =     UHF 
  nalpha           =       10
  nbeta            =        8
  variables        =     1996
  # of vectors     =        3
  tolerance        = 0.10D-03
  level shift      = 0.00D+00
  max iterations   =       50
  max subspace     =       30

 SCF residual:   1.130342788798777E-006


Iterative solution of linear equations
  No. of variables     1996
  No. of equations        3
  Maximum subspace       30
        Iterations       50
       Convergence  1.0D-04
        Start time     18.9


   iter   nsub   residual    time
   ----  ------  --------  ---------
     1      3    1.75D+00      20.1
     2      6    5.20D-02      21.4
     3      9    2.08D-03      22.6
     4     12    3.09D-05      23.9

 Wrote CPHF data to ./dft_zorahyperf_zno6bq.zora_gshiftcphf

NW-1:(dia,gauge,OO,OV,Totpar)(1,1)=(   -2.392800     0.000002    -0.014143    -0.003287    -0.017428 )
NW-1:(dia,gauge,OO,OV,Totpar)(1,2)=(    0.000000     0.000000    -0.000000     0.000000     0.000000 )
NW-1:(dia,gauge,OO,OV,Totpar)(1,3)=(    0.000000     0.000000    -0.000000     0.000000     0.000000 )
NW-1:(dia,gauge,OO,OV,Totpar)(2,1)=(    0.000000     0.000000    -0.000000     0.000000     0.000000 )
NW-1:(dia,gauge,OO,OV,Totpar)(2,2)=(   -2.400797     0.000004    -0.015729    -0.000547    -0.016271 )
NW-1:(dia,gauge,OO,OV,Totpar)(2,3)=(   -0.000000    -0.000000    -0.000000     0.000000     0.000000 )
NW-1:(dia,gauge,OO,OV,Totpar)(3,1)=(    0.000000     0.000000    -0.000000     0.000000     0.000000 )
NW-1:(dia,gauge,OO,OV,Totpar)(3,2)=(   -0.000000    -0.000000     0.000000     0.000000     0.000000 )
NW-1:(dia,gauge,OO,OV,Totpar)(3,3)=(   -2.401785     0.000003    -0.013880    -0.006169    -0.020046 )
NW-2:(dia,gauge,OO,OV,Totpar)(1,1)=(   -2.733069     0.000002    -0.000000    -0.000015    -0.000013 )
NW-2:(dia,gauge,OO,OV,Totpar)(1,2)=(   -0.000000    -0.000000     0.000000     0.000030     0.000030 )
NW-2:(dia,gauge,OO,OV,Totpar)(1,3)=(   -0.000008    -0.000000     0.000000     0.004215     0.004215 )
NW-2:(dia,gauge,OO,OV,Totpar)(2,1)=(   -0.000000    -0.000000     0.000000     0.000030     0.000030 )
NW-2:(dia,gauge,OO,OV,Totpar)(2,2)=(   -2.584137     0.000002    -0.000000   -89.002620   -89.002617 )
NW-2:(dia,gauge,OO,OV,Totpar)(2,3)=(   -0.000000    -0.000000     0.000000     0.000000     0.000000 )
NW-2:(dia,gauge,OO,OV,Totpar)(3,1)=(   -0.000008    -0.000000     0.000000     0.004215     0.004215 )
NW-2:(dia,gauge,OO,OV,Totpar)(3,2)=(   -0.000000    -0.000000    -0.000000     0.000000     0.000000 )
NW-2:(dia,gauge,OO,OV,Totpar)(3,3)=(   -2.584425     0.000001    -0.000000   -78.927578   -78.927577 )
NW-T:(dia,gauge,OO,OV,Totpar)(1,1)=(    0.340269    -0.000000    -0.014143    -0.003271    -0.017415 )
NW-T:(dia,gauge,OO,OV,Totpar)(1,2)=(    0.000000     0.000000    -0.000000    -0.000030    -0.000030 )
NW-T:(dia,gauge,OO,OV,Totpar)(1,3)=(    0.000008     0.000000    -0.000000    -0.004215    -0.004215 )
NW-T:(dia,gauge,OO,OV,Totpar)(2,1)=(    0.000000     0.000000    -0.000000    -0.000030    -0.000030 )
NW-T:(dia,gauge,OO,OV,Totpar)(2,2)=(    0.183340     0.000002    -0.015729    89.002073    88.986346 )
NW-T:(dia,gauge,OO,OV,Totpar)(2,3)=(   -0.000000     0.000000    -0.000000    -0.000000    -0.000000 )
NW-T:(dia,gauge,OO,OV,Totpar)(3,1)=(    0.000008     0.000000    -0.000000    -0.004215    -0.004215 )
NW-T:(dia,gauge,OO,OV,Totpar)(3,2)=(   -0.000000     0.000000     0.000000    -0.000000    -0.000000 )
NW-T:(dia,gauge,OO,OV,Totpar)(3,3)=(    0.182640     0.000001    -0.013880    78.921409    78.907531 )
        Diamagnetic
      0.3403      0.0000      0.0000
      0.0000      0.1833     -0.0000
      0.0000     -0.0000      0.1826

        Paramagnetic
     -0.0174     -0.0000     -0.0042
     -0.0000     88.9863     -0.0000
     -0.0042     -0.0000     78.9075

        Total g shift Tensor
      0.3229     -0.0000     -0.0042
     -0.0000     89.1697     -0.0000
     -0.0042     -0.0000     79.0902

           isotropic =      56.1942
          anisotropy =      49.4632

          Principal Components and Axis System
                 1           2           3
               89.1697     79.0902      0.3229

      1        -0.0000     -0.0001      1.0000
      2         1.0000      0.0000      0.0000
      3        -0.0000      1.0000      0.0001




 Task  times  cpu:       21.8s     wall:       21.8s
 
 
                                NWChem Input Module
                                -------------------
 
 
 Summary of allocated global arrays
-----------------------------------
  array 0 => double precision dft_zora_Hyperfine: g_AtNr(1,1),  handle: -928 


 
 
                                     CITATION
                                     --------
                Please cite the following reference when publishing
                           results obtained with NWChem:
 
          E. Apra, E. J. Bylaska, W. A. de Jong, N. Govind, K. Kowalski,
       T. P. Straatsma, M. Valiev, H. J. J. van Dam, Y. Alexeev, J. Anchell,
       V. Anisimov, F. W. Aquino, R. Atta-Fynn, J. Autschbach, N. P. Bauman,
     J. C. Becca, D. E. Bernholdt, K. Bhaskaran-Nair, S. Bogatko, P. Borowski,
         J. Boschen, J. Brabec, A. Bruner, E. Cauet, Y. Chen, G. N. Chuev,
      C. J. Cramer, J. Daily, M. J. O. Deegan, T. H. Dunning Jr., M. Dupuis,
   K. G. Dyall, G. I. Fann, S. A. Fischer, A. Fonari, H. Fruchtl, L. Gagliardi,
      J. Garza, N. Gawande, S. Ghosh, K. Glaesemann, A. W. Gotz, J. Hammond,
       V. Helms, E. D. Hermes, K. Hirao, S. Hirata, M. Jacquelin, L. Jensen,
   B. G. Johnson, H. Jonsson, R. A. Kendall, M. Klemm, R. Kobayashi, V. Konkov,
      S. Krishnamoorthy, M. Krishnan, Z. Lin, R. D. Lins, R. J. Littlefield,
      A. J. Logsdail, K. Lopata, W. Ma, A. V. Marenich, J. Martin del Campo,
   D. Mejia-Rodriguez, J. E. Moore, J. M. Mullin, T. Nakajima, D. R. Nascimento,
    J. A. Nichols, P. J. Nichols, J. Nieplocha, A. Otero-de-la-Roza, B. Palmer,
    A. Panyala, T. Pirojsirikul, B. Peng, R. Peverati, J. Pittner, L. Pollack,
   R. M. Richard, P. Sadayappan, G. C. Schatz, W. A. Shelton, D. W. Silverstein,
   D. M. A. Smith, T. A. Soares, D. Song, M. Swart, H. L. Taylor, G. S. Thomas,
            V. Tipparaju, D. G. Truhlar, K. Tsemekhman, T. Van Voorhis,
      A. Vazquez-Mayagoitia, P. Verma, O. Villa, A. Vishnu, K. D. Vogiatzis,
        D. Wang, J. H. Weare, M. J. Williamson, T. L. Windus, K. Wolinski,
        A. T. Wong, Q. Wu, C. Yang, Q. Yu, M. Zacharias, Z. Zhang, Y. Zhao,
                                and R. J. Harrison
                        "NWChem: Past, present, and future
                         J. Chem. Phys. 152, 184102 (2020)
                               doi:10.1063/5.0004997
 
                                      AUTHORS
                                      -------
        E. Apra, E. J. Bylaska, N. Govind, K. Kowalski, D. Mejia-Rodriguez,
        N. P. Bauman, A. Panyala, R. J. Harrison, M. Valiev, W. A. de Jong,
       T. P. Straatsma, H. J. J. van Dam, D. Wang, T. L. Windus, J. Hammond,
     J. Autschbach, R. de P. Soares, A. Kunitsa, K. Bhaskaran-Nair, J. Brabec,
      K. Lopata, S. A. Fischer, S. Krishnamoorthy, M. Jacquelin, R. Goswami,
       A. Woods, W. Ma, M. Klemm, O. Villa, Y. Chen, V. Anisimov, F. Aquino,
     S. Hirata, M. T. Hackler, E. Hermes, L. Jensen, J. E. Moore, J. C. Becca,
      V. Konjkov, T. Risthaus, M. Malagoli, A. Marenich, A. Otero-de-la-Roza,
        J. Mullin, P. Nichols, R. Peverati, J. Pittner, Y. Zhao, P.-D. Fan,
        A. Fonari, M. J. Williamson, J. R. Rehr, M. Dupuis, D. Silverstein,
    D. M. A. Smith, J. Nieplocha, V. Tipparaju, M. Krishnan, B. E. Van Kuiken,
        A. Vazquez-Mayagoitia, M. Swart, Q. Wu, T. Van Voorhis, A. A. Auer,
     M. Nooijen, L. D. Crosby, E. Brown, G. Cisneros, G. I. Fann, H. Fruchtl,
   J. Garza, K. Hirao, R. A. Kendall, J. A. Nichols, K. Tsemekhman, K. Wolinski,
     J. Anchell, D. E. Bernholdt, P. Borowski, T. Clark, D. Clerc, H. Dachsel,
   M. J. O. Deegan, K. Dyall, D. Elwood, E. Glendening, M. Gutowski, A. C. Hess,
         J. Jaffe, B. G. Johnson, J. Ju, R. Kobayashi, R. Kutteh, Z. Lin,
   R. Littlefield, X. Long, B. Meng, T. Nakajima, S. Niu, L. Pollack, M. Rosing,
   K. Glaesemann, G. Sandrone, M. Stave, H. Taylor, G. Thomas, J. H. van Lenthe,
                               A. T. Wong, Z. Zhang.

 Total times  cpu:       24.2s     wall:       24.2s
MA_summarize_allocated_blocks: starting scan ...
heap block 'gridpts', handle 120, address 0x1e588f28:
	type of elements:		double precision
	number of elements:		56980741
	address of client space:	0x1e588f80
	index for client space:		14761061
	total number of bytes:		455846024
MA_summarize_allocated_blocks: scan completed: 1 heap block, 0 stack blocks
MA usage statistics:

	allocation statistics:
					      heap	     stack
					      ----	     -----
	current number of blocks	         1	         0
	maximum number of blocks	        50	        77
	current total bytes		 455846024	         0
	maximum total bytes		 457995088	  22520824
	maximum total K-bytes		    457996	     22521
	maximum total M-bytes		       458	        23
