 argument  1 = /home/edo/park/nwchem/QA/tests/dft_hyperf_zno6bq/dft_hyperf_zno6bq.nw
 


============================== echo of input deck ==============================
echo
start dft_zorahyperf_zno6bq
title dft_zorahyperf_zno6bq


start zno_g
geometry
symmetry c4
zn 0. 0. 0.
O  2. 0. 0
O -2. 0. 0
O  0. 2. 0.
O  0. -2. 0.
O  0. 0. 2.1
O  0. 0. -2.1
bqZn  4.  0.  0. charge 1d-20
bqZn -4.  0.  0. charge 1d-20
bqZn  0.  4.  0. charge 1d-20
bqZn  0. -4.  0. charge 1d-20
bqZn  0.  0. -4.2 charge 1d-20
bqZn  0.  0.  4.2 charge 1d-20
end
charge -10
BASIS "ao basis" spherical
* library def2-svp
end
set tolguess 1d-3
charge 0
dft
 direct
 mult 3
 xc pbe0
 grid xfine
 tolerances tight
 convergence energy 1d-8 lshift 0.
 end
task dft
set dft:no_prune t
relativistic
 zora on
 zora:cutoff_NMR 1d-8
 zora:cutoff 1d-30
end

property
 hyperfine 1 1
 gshift
end

task dft property
================================================================================


                                         
                                         
 
 
              Northwest Computational Chemistry Package (NWChem) 6.6
              ------------------------------------------------------
 
 
                    Environmental Molecular Sciences Laboratory
                       Pacific Northwest National Laboratory
                                Richland, WA 99352
 
                              Copyright (c) 1994-2015
                       Pacific Northwest National Laboratory
                            Battelle Memorial Institute
 
             NWChem is an open-source computational chemistry package
                        distributed under the terms of the
                      Educational Community License (ECL) 2.0
             A copy of the license is included with this distribution
                              in the LICENSE.TXT file
 
                                  ACKNOWLEDGMENT
                                  --------------

            This software and its documentation were developed at the
            EMSL at Pacific Northwest National Laboratory, a multiprogram
            national laboratory, operated for the U.S. Department of Energy
            by Battelle under Contract Number DE-AC05-76RL01830. Support
            for this work was provided by the Department of Energy Office
            of Biological and Environmental Research, Office of Basic
            Energy Sciences, and the Office of Advanced Scientific Computing.


           Job information
           ---------------

    hostname        = lagrange
    program         = /home/edo/park/nwchem/bin/LINUX64/nwchem
    date            = Thu Mar  2 18:12:34 2017

    compiled        = Thu_Mar_02_17:36:56_2017
    source          = /home/edo/park/nwchem
    nwchem branch   = Development
    nwchem revision = 28610
    ga revision     = 10742
    input           = /home/edo/park/nwchem/QA/tests/dft_hyperf_zno6bq/dft_hyperf_zno6bq.nw
    prefix          = zno_g.
    data base       = ./zno_g.db
    status          = startup
    nproc           =        3
    time left       =     -1s



           Memory information
           ------------------

    heap     =   13107198 doubles =    100.0 Mbytes
    stack    =   13107195 doubles =    100.0 Mbytes
    global   =   26214400 doubles =    200.0 Mbytes (distinct from heap & stack)
    total    =   52428793 doubles =    400.0 Mbytes
    verify   = yes
    hardfail = no 


           Directory information
           ---------------------
 
  0 permanent = .
  0 scratch   = .
 
 
 
 
                                NWChem Input Module
                                -------------------
 
 
                               dft_zorahyperf_zno6bq
                               ---------------------

 Scaling coordinates for geometry "geometry" by  1.889725989
 (inverse scale =  0.529177249)

 Turning off AUTOSYM since
 SYMMETRY directive was detected!
 

          ------
          auto-z
          ------
  Looking for out-of-plane bends
 
 
                             Geometry "geometry" -> ""
                             -------------------------
 
 Output coordinates in angstroms (scale by  1.889725989 to convert to a.u.)
 
  No.       Tag          Charge          X              Y              Z
 ---- ---------------- ---------- -------------- -------------- --------------
    1 zn                  30.0000     0.00000000     0.00000000     0.00000000
    2 O                    8.0000     2.00000000     0.00000000     0.00000000
    3 O                    8.0000    -2.00000000     0.00000000     0.00000000
    4 O                    8.0000     0.00000000     2.00000000     0.00000000
    5 O                    8.0000     0.00000000    -2.00000000     0.00000000
    6 O                    8.0000     0.00000000     0.00000000     2.10000000
    7 O                    8.0000     0.00000000     0.00000000    -2.10000000
    8 bqZn                 0.0000     4.00000000     0.00000000     0.00000000
    9 bqZn                 0.0000    -4.00000000     0.00000000     0.00000000
   10 bqZn                 0.0000     0.00000000     4.00000000     0.00000000
   11 bqZn                 0.0000     0.00000000    -4.00000000     0.00000000
   12 bqZn                 0.0000     0.00000000     0.00000000    -4.20000000
   13 bqZn                 0.0000     0.00000000     0.00000000     4.20000000
 
      Atomic Mass 
      ----------- 
 
      zn                63.929100
      O                 15.994910
 

 Effective nuclear repulsion energy (a.u.)     541.2800173786

            Nuclear Dipole moment (a.u.) 
            ----------------------------
        X                 Y               Z
 ---------------- ---------------- ----------------
     0.0000000000     0.0000000000     0.0000000000
 
      Symmetry information
      --------------------
 
 Group name             C4        
 Group number              6
 Group order               4
 No. of unique centers     7
 
      Symmetry unique atoms
 
     1    2    6    7    8   12   13
 


                                Z-matrix (autoz)
                                -------- 

 Units are Angstrom for bonds and degrees for angles
 
      Type          Name      I     J     K     L     M      Value
      ----------- --------  ----- ----- ----- ----- ----- ----------
    1 Stretch                  1     2                       2.00000
    2 Stretch                  1     3                       2.00000
    3 Stretch                  1     4                       2.00000
    4 Stretch                  1     5                       2.00000
    5 Stretch                  1     6                       2.10000
    6 Stretch                  1     7                       2.10000
    7 Stretch                  2     8                       2.00000
    8 Stretch                  3     9                       2.00000
    9 Stretch                  4    10                       2.00000
   10 Stretch                  5    11                       2.00000
   11 Stretch                  6    13                       2.10000
   12 Stretch                  7    12                       2.10000
   13 Bend                     2     1     4                90.00000
   14 Bend                     2     1     5                90.00000
   15 Bend                     2     1     6                90.00000
   16 Bend                     2     1     7                90.00000
   17 Bend                     3     1     4                90.00000
   18 Bend                     3     1     5                90.00000
   19 Bend                     3     1     6                90.00000
   20 Bend                     3     1     7                90.00000
   21 Bend                     4     1     6                90.00000
   22 Bend                     4     1     7                90.00000
   23 Bend                     5     1     6                90.00000
   24 Bend                     5     1     7                90.00000
   25 Bend                     8     1     4                90.00000
   26 Bend                     8     1     5                90.00000
   27 Bend                     8     1     6                90.00000
   28 Bend                     8     1     7                90.00000
   29 Bend                     9     1     4                90.00000
   30 Bend                     9     1     5                90.00000
   31 Bend                     9     1     6                90.00000
   32 Bend                     9     1     7                90.00000
   33 Bend                    10     1     2                90.00000
   34 Bend                    10     1     3                90.00000
   35 Bend                    10     1     6                90.00000
   36 Bend                    10     1     7                90.00000
   37 Bend                    11     1     2                90.00000
   38 Bend                    11     1     3                90.00000
   39 Bend                    11     1     6                90.00000
   40 Bend                    11     1     7                90.00000
   41 Bend                    12     1     2                90.00000
   42 Bend                    12     1     3                90.00000
   43 Bend                    12     1     4                90.00000
   44 Bend                    12     1     5                90.00000
   45 Bend                    13     1     2                90.00000
   46 Bend                    13     1     3                90.00000
   47 Bend                    13     1     4                90.00000
   48 Bend                    13     1     5                90.00000
   49 Torsion                  1     2     4    10         180.00000
   50 Torsion                  1     2     5    11         180.00000
   51 Torsion                  1     2     6    13         180.00000
   52 Torsion                  1     2     7    12         180.00000
   53 Torsion                  1     3     4    10         180.00000
   54 Torsion                  1     3     5    11         180.00000
   55 Torsion                  1     3     6    13         180.00000
   56 Torsion                  1     3     7    12         180.00000
   57 Torsion                  1     4     2     8         180.00000
   58 Torsion                  1     4     3     9         180.00000
   59 Torsion                  1     4     6    13         180.00000
   60 Torsion                  1     4     7    12         180.00000
   61 Torsion                  1     5     2     8         180.00000
   62 Torsion                  1     5     3     9         180.00000
   63 Torsion                  1     5     6    13         180.00000
   64 Torsion                  1     5     7    12         180.00000
   65 Torsion                  1     6     2     8         180.00000
   66 Torsion                  1     6     3     9         180.00000
   67 Torsion                  1     6     4    10         180.00000
   68 Torsion                  1     6     5    11         180.00000
   69 Torsion                  1     7     2     8         180.00000
   70 Torsion                  1     7     3     9         180.00000
   71 Torsion                  1     7     4    10         180.00000
   72 Torsion                  1     7     5    11         180.00000
 
 
            XYZ format geometry
            -------------------
    13
 geometry
 zn                    0.00000000     0.00000000     0.00000000
 O                     2.00000000     0.00000000     0.00000000
 O                    -2.00000000     0.00000000     0.00000000
 O                     0.00000000     2.00000000     0.00000000
 O                     0.00000000    -2.00000000     0.00000000
 O                     0.00000000     0.00000000     2.10000000
 O                     0.00000000     0.00000000    -2.10000000
 bqZn                  4.00000000     0.00000000     0.00000000
 bqZn                 -4.00000000     0.00000000     0.00000000
 bqZn                  0.00000000     4.00000000     0.00000000
 bqZn                  0.00000000    -4.00000000     0.00000000
 bqZn                  0.00000000     0.00000000    -4.20000000
 bqZn                  0.00000000     0.00000000     4.20000000
 
 ==============================================================================
                                internuclear distances
 ------------------------------------------------------------------------------
       center one      |      center two      | atomic units |  angstroms
 ------------------------------------------------------------------------------
    2 O                |   1 zn               |     3.77945  |     2.00000
    3 O                |   1 zn               |     3.77945  |     2.00000
    4 O                |   1 zn               |     3.77945  |     2.00000
    5 O                |   1 zn               |     3.77945  |     2.00000
    8 bqZn             |   2 O                |     3.77945  |     2.00000
    9 bqZn             |   3 O                |     3.77945  |     2.00000
   10 bqZn             |   4 O                |     3.77945  |     2.00000
   11 bqZn             |   5 O                |     3.77945  |     2.00000
   12 bqZn             |   7 O                |     3.96842  |     2.10000
   13 bqZn             |   6 O                |     3.96842  |     2.10000
 ------------------------------------------------------------------------------
                         number of included internuclear distances:         10
 ==============================================================================



 ==============================================================================
                                 internuclear angles
 ------------------------------------------------------------------------------
        center 1       |       center 2       |       center 3       |  degrees
 ------------------------------------------------------------------------------
    2 O                |   1 zn               |   3 O                |   180.00
    2 O                |   1 zn               |   4 O                |    90.00
    2 O                |   1 zn               |   5 O                |    90.00
    3 O                |   1 zn               |   4 O                |    90.00
    3 O                |   1 zn               |   5 O                |    90.00
    4 O                |   1 zn               |   5 O                |   180.00
    1 zn               |   2 O                |   8 bqZn             |   180.00
    1 zn               |   3 O                |   9 bqZn             |   180.00
    1 zn               |   4 O                |  10 bqZn             |   180.00
    1 zn               |   5 O                |  11 bqZn             |   180.00
 ------------------------------------------------------------------------------
                            number of included internuclear angles:         10
 ==============================================================================





 Summary of "ao basis" -> "" (spherical)
 ------------------------------------------------------------------------------
       Tag                 Description            Shells   Functions and Types
 ---------------- ------------------------------  ------  ---------------------
 *                          def2-svp                  on all atoms 


 
                                 NWChem DFT Module
                                 -----------------
 
 
                               dft_zorahyperf_zno6bq
 
 
                      Basis "ao basis" -> "ao basis" (spherical)
                      -----
  zn (Zinc)
  ---------
            Exponent  Coefficients 
       -------------- ---------------------------------------------------------
  1 S  8.20007116E+04  0.001421
  1 S  1.23124718E+04  0.010891
  1 S  2.80139442E+03  0.054057
  1 S  7.90994243E+02  0.188475
  1 S  2.57565511E+02  0.383465
  1 S  8.88149334E+01  0.297238
 
  2 S  1.71863537E+02 -0.110518
  2 S  2.03025348E+01  0.646077
  2 S  8.34641231E+00  0.442201
 
  3 S  1.48475369E+01 -0.227053
  3 S  2.44950295E+00  0.724332
  3 S  9.98458218E-01  0.448365
 
  4 S  1.18913079E-01  1.000000
 
  5 S  4.22974288E-02  1.000000
 
  6 P  1.07151854E+03  0.009277
  6 P  2.52697122E+02  0.069541
  6 P  8.01008291E+01  0.271568
  6 P  2.89033932E+01  0.534014
  6 P  1.07688999E+01  0.345013
 
  7 P  5.64462125E+00  0.341296
  7 P  2.16782913E+00  0.563905
  7 P  8.05408983E-01  0.236761
 
  8 P  1.62455000E-01  1.000000
 
  9 D  5.60889392E+01  0.029589
  9 D  1.57519089E+01  0.158726
  9 D  5.31158124E+00  0.379762
  9 D  1.77379049E+00  0.468990
 
 10 D  5.19755837E-01  1.000000
 
 11 F  2.61400000E+00  1.000000
 
  O (Oxygen)
  ----------
            Exponent  Coefficients 
       -------------- ---------------------------------------------------------
  1 S  2.26617678E+03 -0.005343
  1 S  3.40870102E+02 -0.039890
  1 S  7.73631352E+01 -0.178539
  1 S  2.14796449E+01 -0.464277
  1 S  6.65894331E+00 -0.443097
 
  2 S  8.09759757E-01  1.000000
 
  3 S  2.55307722E-01  1.000000
 
  4 P  1.77215043E+01  0.043395
  4 P  3.86355054E+00  0.230941
  4 P  1.04809209E+00  0.513753
 
  5 P  2.76415444E-01  1.000000
 
  6 D  1.20000000E+00  1.000000
 


 Summary of "ao basis" -> "ao basis" (spherical)
 ------------------------------------------------------------------------------
       Tag                 Description            Shells   Functions and Types
 ---------------- ------------------------------  ------  ---------------------
 zn                         def2-svp                11       31   5s3p2d1f
 O                          def2-svp                 6       14   3s2p1d




 Summary of "ao basis" -> "ao basis" (spherical)
 ------------------------------------------------------------------------------
       Tag                 Description            Shells   Functions and Types
 ---------------- ------------------------------  ------  ---------------------
 zn                         def2-svp                11       31   5s3p2d1f
 O                          def2-svp                 6       14   3s2p1d


      Symmetry analysis of basis
      --------------------------
 
        a          37
        b          24
        e+         27
        e-         27
 
  Caching 1-el integrals 
  itol2e modified to match energy
  convergence criterion.
  tol_rho modified to match energy
  convergence criterion.
 
            General Information
            -------------------
          SCF calculation type: DFT
          Wavefunction type:  spin polarized.
          No. of atoms     :    13
          No. of electrons :    78
           Alpha electrons :    40
            Beta electrons :    38
          Charge           :     0
          Spin multiplicity:     3
          Use of symmetry is: on ; symmetry adaption is: on 
          Maximum number of iterations:  30
          This is a Direct SCF calculation.
          AO basis - number of functions:   115
                     number of shells:    47
          Convergence on energy requested:  1.00D-08
          Convergence on density requested:  1.00D-05
          Convergence on gradient requested:  5.00D-04
 
              XC Information
              --------------
                         PBE0 Method XC Functional
                     Hartree-Fock (Exact) Exchange  0.250          
          PerdewBurkeErnzerhof Exchange Functional  0.750          
            Perdew 1991 LDA Correlation Functional  1.000 local    
           PerdewBurkeErnz. Correlation Functional  1.000 non-local
 
             Grid Information
             ----------------
          Grid used for XC integration:  xfine     
          Radial quadrature: Mura-Knowles        
          Angular quadrature: Lebedev. 
          Tag              B.-S. Rad. Rad. Pts. Rad. Cut. Ang. Pts.
          ---              ---------- --------- --------- ---------
          zn                  1.35      160           8.0      1454
          O                   0.60      100          10.0      1454
          bqZn                0.00        0           0.0         0
          Grid pruning is: on 
          Number of quadrature shells:   460
          Spatial weights used:  Erf1
 
          Convergence Information
          -----------------------
          Convergence aids based upon iterative change in 
          total energy or number of iterations. 
          Levelshifting, if invoked, occurs when the 
          HOMO/LUMO gap drops below (HL_TOL):  1.00D-02
          DIIS, if invoked, will attempt to extrapolate 
          using up to (NFOCK): 10 stored Fock matrices.

                    Damping( 0%)  Levelshifting(0.0)       DIIS
                  --------------- ------------------- ---------------
          dE  on:    start            ASAP                start   
          dE off:    2 iters         30 iters            30 iters 

 
      Screening Tolerance Information
      -------------------------------
          Density screening/tol_rho:  1.00D-11
          AO Gaussian exp screening on grid/accAOfunc:  18
          CD Gaussian exp screening on grid/accCDfunc:  20
          XC Gaussian exp screening on grid/accXCfunc:  20
          Schwarz screening/accCoul:  1.00D-09

 
      Superposition of Atomic Density Guess
      -------------------------------------
 
 Sum of atomic energies:       -2225.70840314
 
      Non-variational initial energy
      ------------------------------

 Total energy =   -2223.783750
 1-e energy   =   -4184.444935
 2-e energy   =    1419.381168
 HOMO         =      -0.374998
 LUMO         =      -0.365681
 
 
   Symmetry analysis of molecular orbitals - initial alpha
   -------------------------------------------------------
 
  Numbering of irreducible representations: 
 
     1 a           2 b           3 e+          4 e-      
 
  Orbital symmetries:
 
     1 a           2 a           3 a           4 e+          5 e+      
     6 b           7 a           8 e+          9 e+         10 a       
    11 a          12 a          13 e+         14 e+         15 a       
    16 a          17 e+         18 e+         19 b          20 a       
    21 a          22 b          23 a          24 b          25 e+      
    26 e+         27 a          28 e+         29 e+         30 a       
    31 b          32 e+         33 e+         34 b          35 e+      
    36 e+         37 e+         38 e+         39 a          40 e+      
    41 e+         42 a          43 a          44 b          45 a       
    46 a          47 e+         48 e+         49 a          50 b       
 
 
   Symmetry analysis of molecular orbitals - initial beta
   ------------------------------------------------------
 
  Numbering of irreducible representations: 
 
     1 a           2 b           3 e+          4 e-      
 
  Orbital symmetries:
 
     1 a           2 a           3 a           4 e+          5 e+      
     6 b           7 a           8 e+          9 e+         10 a       
    11 a          12 a          13 e+         14 e+         15 a       
    16 a          17 e+         18 e+         19 b          20 a       
    21 a          22 b          23 a          24 b          25 e+      
    26 e+         27 a          28 e+         29 e+         30 a       
    31 b          32 e+         33 e+         34 b          35 e+      
    36 e+         37 e+         38 e+         39 a          40 e+      
    41 e+         42 a          43 a          44 b          45 a       
    46 a          47 e+         48 e+         49 a          50 b       
 
   Time after variat. SCF:      0.5
   Time prior to 1st pass:      0.5

 Grid_pts file          = ./zno_g.gridpts.0
 Record size in doubles =  12289        No. of grid_pts per rec  =   3070
 Max. records in memory =     81        Max. recs in file   =    523993

  Resetting Diis

           Memory utilization after 1st SCF pass: 
           Heap Space remaining (MW):       12.08            12084590
          Stack Space remaining (MW):       13.11            13105756

   convergence    iter        energy       DeltaE   RMS-Dens  Diis-err    time
 ---------------- ----- ----------------- --------- --------- ---------  ------
 d= 0,ls=0.0,diis     1  -2228.1103916331 -2.77D+03  1.27D-02  2.30D-01     1.5
                                                     6.63D-03  1.94D-01
 d= 0,ls=0.0,diis     2  -2227.4797995765  6.31D-01  2.23D-02  1.17D+00     2.5
                                                     1.96D-02  1.76D+00
 Warning: spatial symmetry breaking:  beta =  1.01D-01
 d= 0,ls=0.0,diis     3  -2216.7660737304  1.07D+01  2.22D-02  1.50D+01     3.5
                                                     1.42D-02  1.13D+01
 d= 0,ls=0.0,diis     4  -2228.1790742722 -1.14D+01  4.20D-03  9.15D-01     4.5
                                                     1.02D-02  8.97D-01
 d= 0,ls=0.0,diis     5  -2227.8144358422  3.65D-01  2.34D-03  1.53D+00     5.5
                                                     1.90D-03  8.89D-01
 d= 0,ls=0.0,diis     6  -2228.1412690061 -3.27D-01  8.95D-04  5.95D-01     6.5
                                                     1.27D-03  4.37D-01
 d= 0,ls=0.0,diis     7  -2228.2788189617 -1.38D-01  8.94D-04  3.24D-01     7.5
                                                     4.04D-03  2.71D-01
 d= 0,ls=0.0,diis     8  -2228.4723439608 -1.94D-01  3.21D-04  6.40D-03     8.4
                                                     1.10D-03  7.15D-03
 d= 0,ls=0.0,diis     9  -2228.4775213615 -5.18D-03  1.44D-04  1.18D-03     9.4
                                                     4.01D-04  1.48D-03
 d= 0,ls=0.0,diis    10  -2228.4782591883 -7.38D-04  9.50D-05  8.71D-04    10.4
                                                     3.40D-04  8.44D-04
 d= 0,ls=0.0,diis    11  -2228.4789176536 -6.58D-04  3.90D-05  8.60D-05    11.4
                                                     2.85D-04  8.60D-05
 d= 0,ls=0.0,diis    12  -2228.4790670927 -1.49D-04  1.40D-05  4.44D-05    12.4
                                                     1.23D-04  4.80D-05
 d= 0,ls=0.0,diis    13  -2228.4790848216 -1.77D-05  7.05D-06  6.99D-05    13.4
                                                     5.42D-05  7.88D-05
 d= 0,ls=0.0,diis    14  -2228.4791075673 -2.27D-05  3.70D-05  4.07D-05    14.4
                                                     1.86D-04  4.09D-05
 d= 0,ls=0.0,diis    15  -2228.4791500838 -4.25D-05  1.11D-05  6.05D-06    15.4
                                                     4.27D-05  5.17D-06
 d= 0,ls=0.0,diis    16  -2228.4791538495 -3.77D-06  3.39D-06  2.67D-07    16.4
                                                     5.60D-06  2.26D-07
 d= 0,ls=0.0,diis    17  -2228.4791539932 -1.44D-07  3.45D-06  1.14D-08    17.4
                                                     1.49D-06  8.20D-09
 d= 0,ls=0.0,diis    18  -2228.4791540198 -2.66D-08  3.83D-06  5.02D-09    18.4
                                                     2.39D-07  1.93D-09
 d= 0,ls=0.0,diis    19  -2228.4791539982  2.16D-08  1.43D-06  1.96D-09    19.3
                                                     3.91D-07  1.37D-09
 d= 0,ls=0.0,diis    20  -2228.4791539974  8.72D-10  2.47D-08  4.78D-12    20.3
                                                     6.35D-08  6.07D-12


         Total DFT energy =    -2228.479153997371
      One electron energy =    -4179.396094474419
           Coulomb energy =     1530.612775923922
    Exchange-Corr. energy =     -120.975852825453
 Nuclear repulsion energy =      541.280017378578

 Numeric. integr. density =       78.000000037305

     Total iterative time =     19.8s


 
                  Occupations of the irreducible representations
                  ----------------------------------------------
 
                     irrep           alpha         beta
                     --------     --------     --------
                     a                16.0         15.0
                     b                 6.0          7.0
                     e+               18.0         16.0
                     e-                0.0          0.0
 
 
                    DFT Final Alpha Molecular Orbital Analysis
                    ------------------------------------------
 
 Vector    1  Occ=1.000000D+00  E=-3.477035D+02  Symmetry=a
              MO Center= -7.4D-22,  4.5D-22, -4.8D-13, r^2= 9.8D-04
   Bfn.  Coefficient  Atom+Function         Bfn.  Coefficient  Atom+Function  
  ----- ------------  ---------------      ----- ------------  ---------------
     1      0.995303   1 Zn s         
 
 Vector    2  Occ=1.000000D+00  E=-4.245156D+01  Symmetry=a
              MO Center=  4.0D-16, -2.5D-17, -1.5D-09, r^2= 1.7D-02
   Bfn.  Coefficient  Atom+Function         Bfn.  Coefficient  Atom+Function  
  ----- ------------  ---------------      ----- ------------  ---------------
     2      1.046098   1 Zn s                 1     -0.341070   1 Zn s         
 
 Vector    3  Occ=1.000000D+00  E=-3.741038D+01  Symmetry=a
              MO Center= -1.8D-18, -1.4D-18,  1.4D-09, r^2= 1.4D-02
   Bfn.  Coefficient  Atom+Function         Bfn.  Coefficient  Atom+Function  
  ----- ------------  ---------------      ----- ------------  ---------------
     8      0.993243   1 Zn pz        
 
 Vector    4  Occ=1.000000D+00  E=-3.740400D+01  Symmetry=e+
              MO Center= -4.2D-18,  3.3D-17, -4.3D-11, r^2= 1.4D-02
   Bfn.  Coefficient  Atom+Function         Bfn.  Coefficient  Atom+Function  
  ----- ------------  ---------------      ----- ------------  ---------------
     7      0.993281   1 Zn py        
 
 Vector    5  Occ=1.000000D+00  E=-3.740400D+01  Symmetry=e+
              MO Center= -4.0D-16, -1.7D-19, -4.3D-11, r^2= 1.4D-02
   Bfn.  Coefficient  Atom+Function         Bfn.  Coefficient  Atom+Function  
  ----- ------------  ---------------      ----- ------------  ---------------
     6      0.993281   1 Zn px        
 
 Vector    6  Occ=1.000000D+00  E=-1.944524D+01  Symmetry=a
              MO Center= -1.8D-17, -9.4D-18,  5.1D-02, r^2= 4.4D+00
   Bfn.  Coefficient  Atom+Function         Bfn.  Coefficient  Atom+Function  
  ----- ------------  ---------------      ----- ------------  ---------------
    88      0.707700   6 O  s               102      0.690756   7 O  s         
    89     -0.027681   6 O  s               103     -0.027021   7 O  s         
 
 Vector    7  Occ=1.000000D+00  E=-1.944522D+01  Symmetry=a
              MO Center=  2.1D-19,  4.9D-20, -5.1D-02, r^2= 4.4D+00
   Bfn.  Coefficient  Atom+Function         Bfn.  Coefficient  Atom+Function  
  ----- ------------  ---------------      ----- ------------  ---------------
   102     -0.707724   7 O  s                88      0.690780   6 O  s         
   103      0.027556   7 O  s                89     -0.026893   6 O  s         
 
 Vector    8  Occ=1.000000D+00  E=-1.930329D+01  Symmetry=a
              MO Center=  7.9D-17, -1.4D-16, -1.6D-11, r^2= 4.0D+00
   Bfn.  Coefficient  Atom+Function         Bfn.  Coefficient  Atom+Function  
  ----- ------------  ---------------      ----- ------------  ---------------
    32      0.494720   2 O  s                46      0.494720   3 O  s         
    60      0.494720   4 O  s                74      0.494720   5 O  s         
 
 Vector    9  Occ=1.000000D+00  E=-1.930323D+01  Symmetry=e+
              MO Center=  1.2D-10, -1.6D-10, -1.3D-11, r^2= 4.0D+00
   Bfn.  Coefficient  Atom+Function         Bfn.  Coefficient  Atom+Function  
  ----- ------------  ---------------      ----- ------------  ---------------
    60      0.555302   4 O  s                74     -0.555302   5 O  s         
    32      0.425726   2 O  s                46     -0.425726   3 O  s         
 
 Vector   10  Occ=1.000000D+00  E=-1.930323D+01  Symmetry=e+
              MO Center=  6.4D-11,  4.9D-11, -1.3D-11, r^2= 4.0D+00
   Bfn.  Coefficient  Atom+Function         Bfn.  Coefficient  Atom+Function  
  ----- ------------  ---------------      ----- ------------  ---------------
    32      0.555302   2 O  s                46     -0.555302   3 O  s         
    60     -0.425726   4 O  s                74      0.425726   5 O  s         
 
 Vector   11  Occ=1.000000D+00  E=-1.930317D+01  Symmetry=b
              MO Center= -1.8D-10,  1.1D-10, -1.2D-11, r^2= 4.0D+00
   Bfn.  Coefficient  Atom+Function         Bfn.  Coefficient  Atom+Function  
  ----- ------------  ---------------      ----- ------------  ---------------
    32      0.494825   2 O  s                46      0.494825   3 O  s         
    60     -0.494825   4 O  s                74     -0.494825   5 O  s         
 
 Vector   12  Occ=1.000000D+00  E=-4.973713D+00  Symmetry=a
              MO Center= -2.0D-18,  1.5D-18, -2.0D-08, r^2= 1.5D-01
   Bfn.  Coefficient  Atom+Function         Bfn.  Coefficient  Atom+Function  
  ----- ------------  ---------------      ----- ------------  ---------------
     3      1.088589   1 Zn s                 2     -0.477568   1 Zn s         
     1      0.129233   1 Zn s         
 
 Vector   13  Occ=1.000000D+00  E=-3.358884D+00  Symmetry=a
              MO Center= -1.1D-16, -1.7D-16,  8.1D-09, r^2= 1.7D-01
   Bfn.  Coefficient  Atom+Function         Bfn.  Coefficient  Atom+Function  
  ----- ------------  ---------------      ----- ------------  ---------------
    11      1.074627   1 Zn pz                8     -0.409724   1 Zn pz        
 
 Vector   14  Occ=1.000000D+00  E=-3.344992D+00  Symmetry=e+
              MO Center=  1.3D-18, -8.6D-17, -3.4D-09, r^2= 1.7D-01
   Bfn.  Coefficient  Atom+Function         Bfn.  Coefficient  Atom+Function  
  ----- ------------  ---------------      ----- ------------  ---------------
     9      1.061399   1 Zn px                6     -0.404589   1 Zn px        
    10      0.167288   1 Zn py                7     -0.063768   1 Zn py        
 
 Vector   15  Occ=1.000000D+00  E=-3.344992D+00  Symmetry=e+
              MO Center= -9.1D-17, -2.0D-16, -3.4D-09, r^2= 1.7D-01
   Bfn.  Coefficient  Atom+Function         Bfn.  Coefficient  Atom+Function  
  ----- ------------  ---------------      ----- ------------  ---------------
    10      1.061399   1 Zn py                7     -0.404589   1 Zn py        
     9     -0.167288   1 Zn px                6      0.063768   1 Zn px        
 
 Vector   16  Occ=1.000000D+00  E=-1.115782D+00  Symmetry=a
              MO Center=  4.9D-16,  5.3D-16,  6.3D-04, r^2= 4.6D+00
   Bfn.  Coefficient  Atom+Function         Bfn.  Coefficient  Atom+Function  
  ----- ------------  ---------------      ----- ------------  ---------------
    89      0.479359   6 O  s               103      0.479209   7 O  s         
    90      0.284524   6 O  s               104      0.284436   7 O  s         
    88      0.225532   6 O  s               102      0.225462   7 O  s         
     4      0.049953   1 Zn s                 3     -0.037460   1 Zn s         
    17      0.033639   1 Zn d  0             93     -0.025675   6 O  pz        
 
 Vector   17  Occ=1.000000D+00  E=-1.113314D+00  Symmetry=a
              MO Center=  1.1D-15,  6.4D-16, -6.3D-04, r^2= 4.7D+00
   Bfn.  Coefficient  Atom+Function         Bfn.  Coefficient  Atom+Function  
  ----- ------------  ---------------      ----- ------------  ---------------
    89      0.482626   6 O  s               103     -0.482774   7 O  s         
    90      0.284408   6 O  s               104     -0.284496   7 O  s         
    88      0.226937   6 O  s               102     -0.227006   7 O  s         
    11     -0.031018   1 Zn pz               14      0.029570   1 Zn pz        
 
 Vector   18  Occ=1.000000D+00  E=-9.442007D-01  Symmetry=a
              MO Center=  3.8D-14,  1.9D-13,  2.2D-08, r^2= 4.0D+00
   Bfn.  Coefficient  Atom+Function         Bfn.  Coefficient  Atom+Function  
  ----- ------------  ---------------      ----- ------------  ---------------
    33      0.303337   2 O  s                47      0.303337   3 O  s         
    61      0.303337   4 O  s                75      0.303337   5 O  s         
    34      0.205465   2 O  s                48      0.205465   3 O  s         
    62      0.205465   4 O  s                76      0.205465   5 O  s         
    32      0.148590   2 O  s                46      0.148590   3 O  s         
 
 Vector   19  Occ=1.000000D+00  E=-9.267681D-01  Symmetry=e+
              MO Center= -5.8D-13,  4.7D-13,  6.4D-08, r^2= 4.2D+00
   Bfn.  Coefficient  Atom+Function         Bfn.  Coefficient  Atom+Function  
  ----- ------------  ---------------      ----- ------------  ---------------
    61      0.347434   4 O  s                75     -0.347434   5 O  s         
    33      0.272696   2 O  s                47     -0.272696   3 O  s         
    62      0.241860   4 O  s                76     -0.241860   5 O  s         
    34      0.189832   2 O  s                48     -0.189832   3 O  s         
    60      0.170507   4 O  s                74     -0.170507   5 O  s         
 
 Vector   20  Occ=1.000000D+00  E=-9.267681D-01  Symmetry=e+
              MO Center=  6.9D-14, -5.4D-14,  6.4D-08, r^2= 4.2D+00
   Bfn.  Coefficient  Atom+Function         Bfn.  Coefficient  Atom+Function  
  ----- ------------  ---------------      ----- ------------  ---------------
    33      0.347434   2 O  s                47     -0.347434   3 O  s         
    61     -0.272696   4 O  s                75      0.272696   5 O  s         
    34      0.241860   2 O  s                48     -0.241860   3 O  s         
    62     -0.189832   4 O  s                76      0.189832   5 O  s         
    32      0.170507   2 O  s                46     -0.170507   3 O  s         
 
 Vector   21  Occ=1.000000D+00  E=-9.207941D-01  Symmetry=b
              MO Center=  4.7D-13, -6.0D-13,  5.0D-08, r^2= 4.2D+00
   Bfn.  Coefficient  Atom+Function         Bfn.  Coefficient  Atom+Function  
  ----- ------------  ---------------      ----- ------------  ---------------
    33      0.311467   2 O  s                47      0.311467   3 O  s         
    61     -0.311467   4 O  s                75     -0.311467   5 O  s         
    34      0.229616   2 O  s                48      0.229616   3 O  s         
    62     -0.229616   4 O  s                76     -0.229616   5 O  s         
    32      0.153328   2 O  s                46      0.153328   3 O  s         
 
 Vector   22  Occ=1.000000D+00  E=-6.291354D-01  Symmetry=a
              MO Center= -4.6D-16, -2.3D-15, -5.1D-06, r^2= 1.4D+00
   Bfn.  Coefficient  Atom+Function         Bfn.  Coefficient  Atom+Function  
  ----- ------------  ---------------      ----- ------------  ---------------
    17      0.734686   1 Zn d  0             22      0.263897   1 Zn d  0      
    93     -0.204743   6 O  pz              107      0.204745   7 O  pz        
    96     -0.124762   6 O  pz              110      0.124764   7 O  pz        
     4      0.078333   1 Zn s                89     -0.062567   6 O  s         
   103     -0.062567   7 O  s                 3     -0.041742   1 Zn s         
 
 Vector   23  Occ=1.000000D+00  E=-6.074467D-01  Symmetry=e+
              MO Center=  1.8D-17, -4.8D-15,  3.5D-06, r^2= 7.0D-01
   Bfn.  Coefficient  Atom+Function         Bfn.  Coefficient  Atom+Function  
  ----- ------------  ---------------      ----- ------------  ---------------
    16      0.782866   1 Zn d -1             21      0.287133   1 Zn d -1      
    18      0.141116   1 Zn d  1             92      0.123651   6 O  py        
   106     -0.123648   7 O  py               95      0.087665   6 O  py        
   109     -0.087663   7 O  py               23      0.051757   1 Zn d  1      
    65      0.049208   4 O  pz               79     -0.049208   5 O  pz        
 
 Vector   24  Occ=1.000000D+00  E=-6.074467D-01  Symmetry=e+
              MO Center=  5.0D-16, -1.8D-16,  3.5D-06, r^2= 7.0D-01
   Bfn.  Coefficient  Atom+Function         Bfn.  Coefficient  Atom+Function  
  ----- ------------  ---------------      ----- ------------  ---------------
    18      0.782866   1 Zn d  1             23      0.287133   1 Zn d  1      
    16     -0.141116   1 Zn d -1             91     -0.123651   6 O  px        
   105      0.123648   7 O  px               94     -0.087665   6 O  px        
   108      0.087663   7 O  px               21     -0.051757   1 Zn d -1      
    37     -0.049208   2 O  pz               51      0.049208   3 O  pz        
 
 Vector   25  Occ=1.000000D+00  E=-6.006323D-01  Symmetry=b
              MO Center=  3.1D-16, -1.8D-15, -2.9D-10, r^2= 3.3D-01
   Bfn.  Coefficient  Atom+Function         Bfn.  Coefficient  Atom+Function  
  ----- ------------  ---------------      ----- ------------  ---------------
    15      0.835576   1 Zn d -2             20      0.303202   1 Zn d -2      
    39      0.032620   2 O  py               53     -0.032620   3 O  py        
    66      0.032620   4 O  px               80     -0.032620   5 O  px        
 
 Vector   26  Occ=1.000000D+00  E=-5.805912D-01  Symmetry=b
              MO Center=  4.8D-16, -1.7D-14, -2.1D-09, r^2= 9.1D-01
   Bfn.  Coefficient  Atom+Function         Bfn.  Coefficient  Atom+Function  
  ----- ------------  ---------------      ----- ------------  ---------------
    19      0.784311   1 Zn d  2             24      0.289324   1 Zn d  2      
    35     -0.084942   2 O  px               49      0.084942   3 O  px        
    64      0.084942   4 O  py               78     -0.084942   5 O  py        
    33     -0.071148   2 O  s                47     -0.071148   3 O  s         
    61      0.071148   4 O  s                75      0.071148   5 O  s         
 
 Vector   27  Occ=1.000000D+00  E=-5.381527D-01  Symmetry=a
              MO Center= -1.1D-15, -1.3D-15, -1.1D-04, r^2= 4.9D+00
   Bfn.  Coefficient  Atom+Function         Bfn.  Coefficient  Atom+Function  
  ----- ------------  ---------------      ----- ------------  ---------------
    93      0.475617   6 O  pz              107      0.475644   7 O  pz        
    96      0.277501   6 O  pz              110      0.277516   7 O  pz        
    14     -0.129811   1 Zn pz               11      0.079319   1 Zn pz        
    90      0.048670   6 O  s               104     -0.048672   7 O  s         
    37     -0.045172   2 O  pz               51     -0.045172   3 O  pz        
 
 Vector   28  Occ=1.000000D+00  E=-5.358869D-01  Symmetry=e+
              MO Center=  5.8D-16,  1.8D-15,  4.7D-04, r^2= 4.9D+00
   Bfn.  Coefficient  Atom+Function         Bfn.  Coefficient  Atom+Function  
  ----- ------------  ---------------      ----- ------------  ---------------
    92      0.441759   6 O  py              106      0.441657   7 O  py        
    95      0.261823   6 O  py              109      0.261763   7 O  py        
    91      0.236136   6 O  px              105      0.236081   7 O  px        
    94      0.139954   6 O  px              108      0.139921   7 O  px        
    13      0.049427   1 Zn py               61     -0.026644   4 O  s         
 
 Vector   29  Occ=1.000000D+00  E=-5.358869D-01  Symmetry=e+
              MO Center=  2.8D-15, -9.7D-16,  4.7D-04, r^2= 4.9D+00
   Bfn.  Coefficient  Atom+Function         Bfn.  Coefficient  Atom+Function  
  ----- ------------  ---------------      ----- ------------  ---------------
    91      0.441759   6 O  px              105      0.441657   7 O  px        
    94      0.261823   6 O  px              108      0.261763   7 O  px        
    92     -0.236136   6 O  py              106     -0.236081   7 O  py        
    95     -0.139954   6 O  py              109     -0.139921   7 O  py        
    12      0.049427   1 Zn px               33     -0.026644   2 O  s         
 
 Vector   30  Occ=1.000000D+00  E=-5.294598D-01  Symmetry=e+
              MO Center= -6.6D-16,  2.3D-16, -4.8D-04, r^2= 4.5D+00
   Bfn.  Coefficient  Atom+Function         Bfn.  Coefficient  Atom+Function  
  ----- ------------  ---------------      ----- ------------  ---------------
    91      0.468756   6 O  px              105     -0.468871   7 O  px        
    94      0.278061   6 O  px              108     -0.278130   7 O  px        
    18      0.254208   1 Zn d  1             92     -0.124995   6 O  py        
   106      0.125026   7 O  py               23      0.080839   1 Zn d  1      
    95     -0.074146   6 O  py              109      0.074164   7 O  py        
 
 Vector   31  Occ=1.000000D+00  E=-5.294598D-01  Symmetry=e+
              MO Center= -6.9D-17,  5.1D-16, -4.8D-04, r^2= 4.5D+00
   Bfn.  Coefficient  Atom+Function         Bfn.  Coefficient  Atom+Function  
  ----- ------------  ---------------      ----- ------------  ---------------
    92      0.468756   6 O  py              106     -0.468871   7 O  py        
    95      0.278061   6 O  py              109     -0.278130   7 O  py        
    16     -0.254208   1 Zn d -1             91      0.124995   6 O  px        
   105     -0.125026   7 O  px               21     -0.080839   1 Zn d -1      
    94      0.074146   6 O  px              108     -0.074164   7 O  px        
 
 Vector   32  Occ=1.000000D+00  E=-5.263568D-01  Symmetry=a
              MO Center= -2.7D-15, -4.7D-15,  1.1D-04, r^2= 4.1D+00
   Bfn.  Coefficient  Atom+Function         Bfn.  Coefficient  Atom+Function  
  ----- ------------  ---------------      ----- ------------  ---------------
    93      0.394170   6 O  pz              107     -0.394138   7 O  pz        
    17      0.357134   1 Zn d  0              4     -0.316745   1 Zn s         
    96      0.227053   6 O  pz              110     -0.227034   7 O  pz        
     3      0.155429   1 Zn s                22      0.115627   1 Zn d  0      
    35      0.093315   2 O  px               49     -0.093315   3 O  px        
 
 Vector   33  Occ=1.000000D+00  E=-3.967919D-01  Symmetry=a
              MO Center=  1.3D-16,  1.8D-15,  1.9D-07, r^2= 4.5D+00
   Bfn.  Coefficient  Atom+Function         Bfn.  Coefficient  Atom+Function  
  ----- ------------  ---------------      ----- ------------  ---------------
    37      0.324777   2 O  pz               51      0.324777   3 O  pz        
    65      0.324777   4 O  pz               79      0.324777   5 O  pz        
    40      0.224070   2 O  pz               54      0.224070   3 O  pz        
    68      0.224070   4 O  pz               82      0.224070   5 O  pz        
    14      0.109220   1 Zn pz               93      0.109765   6 O  pz        
 
 Vector   34  Occ=1.000000D+00  E=-3.848793D-01  Symmetry=e+
              MO Center= -1.2D-13, -3.1D-13, -2.5D-07, r^2= 4.5D+00
   Bfn.  Coefficient  Atom+Function         Bfn.  Coefficient  Atom+Function  
  ----- ------------  ---------------      ----- ------------  ---------------
    65      0.442828   4 O  pz               79     -0.442828   5 O  pz        
    68      0.310638   4 O  pz               82     -0.310638   5 O  pz        
    37     -0.163782   2 O  pz               51      0.163782   3 O  pz        
    16     -0.119608   1 Zn d -1             40     -0.114891   2 O  pz        
    54      0.114891   3 O  pz               92     -0.062890   6 O  py        
 
 Vector   35  Occ=1.000000D+00  E=-3.848793D-01  Symmetry=e+
              MO Center= -1.4D-13,  5.0D-14, -2.5D-07, r^2= 4.5D+00
   Bfn.  Coefficient  Atom+Function         Bfn.  Coefficient  Atom+Function  
  ----- ------------  ---------------      ----- ------------  ---------------
    37      0.442828   2 O  pz               51     -0.442828   3 O  pz        
    40      0.310638   2 O  pz               54     -0.310638   3 O  pz        
    65      0.163782   4 O  pz               79     -0.163782   5 O  pz        
    18      0.119608   1 Zn d  1             68      0.114891   4 O  pz        
    82     -0.114891   5 O  pz               91     -0.062890   6 O  px        
 
 Vector   36  Occ=1.000000D+00  E=-3.840734D-01  Symmetry=a
              MO Center= -2.1D-15,  2.6D-14,  2.4D-06, r^2= 4.2D+00
   Bfn.  Coefficient  Atom+Function         Bfn.  Coefficient  Atom+Function  
  ----- ------------  ---------------      ----- ------------  ---------------
     4      0.469826   1 Zn s                35     -0.253968   2 O  px        
    49      0.253968   3 O  px               64     -0.253968   4 O  py        
    78      0.253968   5 O  py               17      0.247839   1 Zn d  0      
    93      0.217287   6 O  pz              107     -0.217286   7 O  pz        
     3     -0.206615   1 Zn s                38     -0.166032   2 O  px        
 
 Vector   37  Occ=1.000000D+00  E=-3.837121D-01  Symmetry=b
              MO Center=  2.5D-13,  2.6D-13, -2.0D-08, r^2= 4.5D+00
   Bfn.  Coefficient  Atom+Function         Bfn.  Coefficient  Atom+Function  
  ----- ------------  ---------------      ----- ------------  ---------------
    37      0.339932   2 O  pz               51      0.339932   3 O  pz        
    65     -0.339932   4 O  pz               79     -0.339932   5 O  pz        
    40      0.236721   2 O  pz               54      0.236721   3 O  pz        
    68     -0.236721   4 O  pz               82     -0.236721   5 O  pz        
 
 Vector   38  Occ=1.000000D+00  E=-3.581836D-01  Symmetry=e+
              MO Center=  1.4D-14,  1.5D-14, -1.9D-07, r^2= 4.5D+00
   Bfn.  Coefficient  Atom+Function         Bfn.  Coefficient  Atom+Function  
  ----- ------------  ---------------      ----- ------------  ---------------
    64      0.401629   4 O  py               78      0.401629   5 O  py        
    67      0.267715   4 O  py               81      0.267715   5 O  py        
    13     -0.252212   1 Zn py               10      0.115961   1 Zn py        
    62      0.100184   4 O  s                76     -0.100184   5 O  s         
    35     -0.097997   2 O  px               49     -0.097997   3 O  px        
 
 Vector   39  Occ=1.000000D+00  E=-3.581836D-01  Symmetry=e+
              MO Center= -5.5D-15, -8.7D-16, -1.9D-07, r^2= 4.5D+00
   Bfn.  Coefficient  Atom+Function         Bfn.  Coefficient  Atom+Function  
  ----- ------------  ---------------      ----- ------------  ---------------
    35      0.401629   2 O  px               49      0.401629   3 O  px        
    38      0.267715   2 O  px               52      0.267715   3 O  px        
    12     -0.252212   1 Zn px                9      0.115961   1 Zn px        
    34      0.100184   2 O  s                48     -0.100184   3 O  s         
    64      0.097997   4 O  py               78      0.097997   5 O  py        
 
 Vector   40  Occ=1.000000D+00  E=-2.722155D-01  Symmetry=b
              MO Center= -7.2D-15,  1.3D-15,  3.4D-09, r^2= 4.5D+00
   Bfn.  Coefficient  Atom+Function         Bfn.  Coefficient  Atom+Function  
  ----- ------------  ---------------      ----- ------------  ---------------
    36      0.292714   2 O  py               50     -0.292714   3 O  py        
    63      0.292714   4 O  px               77     -0.292714   5 O  px        
    39      0.264305   2 O  py               53     -0.264305   3 O  py        
    66      0.264305   4 O  px               80     -0.264305   5 O  px        
    15     -0.154851   1 Zn d -2      
 
 Vector   41  Occ=0.000000D+00  E=-2.404114D-01  Symmetry=b
              MO Center= -5.8D-15, -1.4D-14,  6.9D-09, r^2= 4.2D+00
   Bfn.  Coefficient  Atom+Function         Bfn.  Coefficient  Atom+Function  
  ----- ------------  ---------------      ----- ------------  ---------------
    19      0.329006   1 Zn d  2             35      0.323216   2 O  px        
    49     -0.323216   3 O  px               64     -0.323216   4 O  py        
    78      0.323216   5 O  py               38      0.243851   2 O  px        
    52     -0.243851   3 O  px               67     -0.243851   4 O  py        
    81      0.243851   5 O  py               24      0.080687   1 Zn d  2      
 
 Vector   42  Occ=0.000000D+00  E=-2.039738D-01  Symmetry=e+
              MO Center=  3.2D-15,  3.1D-15,  3.3D-09, r^2= 4.6D+00
   Bfn.  Coefficient  Atom+Function         Bfn.  Coefficient  Atom+Function  
  ----- ------------  ---------------      ----- ------------  ---------------
    36      0.379863   2 O  py               50      0.379863   3 O  py        
    39      0.314660   2 O  py               53      0.314660   3 O  py        
    63      0.195975   4 O  px               77      0.195975   5 O  px        
    66      0.162336   4 O  px               80      0.162336   5 O  px        
    64      0.119426   4 O  py               78      0.119426   5 O  py        
 
 Vector   43  Occ=0.000000D+00  E=-2.039738D-01  Symmetry=e+
              MO Center=  3.0D-17, -9.9D-16,  3.3D-09, r^2= 4.6D+00
   Bfn.  Coefficient  Atom+Function         Bfn.  Coefficient  Atom+Function  
  ----- ------------  ---------------      ----- ------------  ---------------
    63      0.379863   4 O  px               77      0.379863   5 O  px        
    66      0.314660   4 O  px               80      0.314660   5 O  px        
    36     -0.195975   2 O  py               50     -0.195975   3 O  py        
    39     -0.162336   2 O  py               53     -0.162336   3 O  py        
    35      0.119426   2 O  px               49      0.119426   3 O  px        
 
 Vector   44  Occ=0.000000D+00  E=-1.722323D-01  Symmetry=a
              MO Center=  3.0D-15, -2.2D-15,  3.6D-09, r^2= 4.6D+00
   Bfn.  Coefficient  Atom+Function         Bfn.  Coefficient  Atom+Function  
  ----- ------------  ---------------      ----- ------------  ---------------
    36      0.330692   2 O  py               50     -0.330692   3 O  py        
    63     -0.330692   4 O  px               77      0.330692   5 O  px        
    39      0.258637   2 O  py               53     -0.258637   3 O  py        
    66     -0.258637   4 O  px               80      0.258637   5 O  px        
 
 Vector   45  Occ=0.000000D+00  E= 4.604152D-02  Symmetry=a
              MO Center=  1.5D-15, -1.2D-15,  8.6D-07, r^2= 7.0D+00
   Bfn.  Coefficient  Atom+Function         Bfn.  Coefficient  Atom+Function  
  ----- ------------  ---------------      ----- ------------  ---------------
     5      1.550545   1 Zn s                34     -0.305457   2 O  s         
    48     -0.305457   3 O  s                62     -0.305457   4 O  s         
    76     -0.305457   5 O  s                90     -0.234935   6 O  s         
   104     -0.234935   7 O  s                 3     -0.221121   1 Zn s         
    89     -0.142040   6 O  s               103     -0.142040   7 O  s         
 
 Vector   46  Occ=0.000000D+00  E= 1.375412D-01  Symmetry=a
              MO Center= -1.8D-15,  2.0D-15, -5.9D-08, r^2= 5.1D+00
   Bfn.  Coefficient  Atom+Function         Bfn.  Coefficient  Atom+Function  
  ----- ------------  ---------------      ----- ------------  ---------------
     4      2.228185   1 Zn s                 5     -1.548012   1 Zn s         
     3     -0.522015   1 Zn s                38      0.207858   2 O  px        
    52     -0.207858   3 O  px               67      0.207858   4 O  py        
    81     -0.207858   5 O  py               35      0.202906   2 O  px        
    49     -0.202906   3 O  px               64      0.202906   4 O  py        
 
 Vector   47  Occ=0.000000D+00  E= 2.029454D-01  Symmetry=a
              MO Center= -4.6D-17, -1.7D-15, -3.2D-07, r^2= 2.5D+00
   Bfn.  Coefficient  Atom+Function         Bfn.  Coefficient  Atom+Function  
  ----- ------------  ---------------      ----- ------------  ---------------
    14      1.397712   1 Zn pz               11     -0.312196   1 Zn pz        
    96      0.272965   6 O  pz              110      0.272965   7 O  pz        
    89     -0.241221   6 O  s               103      0.241221   7 O  s         
    90     -0.210649   6 O  s               104      0.210650   7 O  s         
    93      0.194599   6 O  pz              107      0.194599   7 O  pz        
 
 Vector   48  Occ=0.000000D+00  E= 2.765304D-01  Symmetry=e+
              MO Center= -6.4D-16, -1.9D-15,  3.3D-07, r^2= 2.7D+00
   Bfn.  Coefficient  Atom+Function         Bfn.  Coefficient  Atom+Function  
  ----- ------------  ---------------      ----- ------------  ---------------
    13      1.233374   1 Zn py               12     -0.934117   1 Zn px        
    67      0.312497   4 O  py               81      0.312497   5 O  py        
    62     -0.280929   4 O  s                76      0.280929   5 O  s         
    10     -0.243708   1 Zn py               38     -0.236675   2 O  px        
    52     -0.236675   3 O  px               34      0.212766   2 O  s         
 
 Vector   49  Occ=0.000000D+00  E= 2.765304D-01  Symmetry=e+
              MO Center=  3.4D-16, -1.5D-15,  3.3D-07, r^2= 2.7D+00
   Bfn.  Coefficient  Atom+Function         Bfn.  Coefficient  Atom+Function  
  ----- ------------  ---------------      ----- ------------  ---------------
    12      1.233374   1 Zn px               13      0.934117   1 Zn py        
    38      0.312497   2 O  px               52      0.312497   3 O  px        
    34     -0.280929   2 O  s                48      0.280929   3 O  s         
     9     -0.243708   1 Zn px               67      0.236675   4 O  py        
    81      0.236675   5 O  py               62     -0.212766   4 O  s         
 
 Vector   50  Occ=0.000000D+00  E= 6.772627D-01  Symmetry=e+
              MO Center= -7.5D-16, -8.5D-15,  7.6D-06, r^2= 4.8D+00
   Bfn.  Coefficient  Atom+Function         Bfn.  Coefficient  Atom+Function  
  ----- ------------  ---------------      ----- ------------  ---------------
    95     -0.522471   6 O  py              109      0.522467   7 O  py        
    92      0.478820   6 O  py              106     -0.478817   7 O  py        
    65      0.374960   4 O  pz               79     -0.374960   5 O  pz        
    68     -0.347922   4 O  pz               82      0.347922   5 O  pz        
    16      0.193095   1 Zn d -1             21     -0.169129   1 Zn d -1      
 
 Vector   51  Occ=0.000000D+00  E= 6.772627D-01  Symmetry=e+
              MO Center=  5.7D-17, -5.1D-16,  7.6D-06, r^2= 4.8D+00
   Bfn.  Coefficient  Atom+Function         Bfn.  Coefficient  Atom+Function  
  ----- ------------  ---------------      ----- ------------  ---------------
    94     -0.522471   6 O  px              108      0.522467   7 O  px        
    91      0.478820   6 O  px              105     -0.478817   7 O  px        
    37      0.374960   2 O  pz               51     -0.374960   3 O  pz        
    40     -0.347922   2 O  pz               54      0.347922   3 O  pz        
    18     -0.193095   1 Zn d  1             23      0.169129   1 Zn d  1      
 
 Vector   52  Occ=0.000000D+00  E= 7.549297D-01  Symmetry=a
              MO Center=  6.9D-17, -1.9D-16,  2.7D-06, r^2= 7.7D+00
   Bfn.  Coefficient  Atom+Function         Bfn.  Coefficient  Atom+Function  
  ----- ------------  ---------------      ----- ------------  ---------------
    90     -0.927689   6 O  s               104      0.927685   7 O  s         
    89      0.853986   6 O  s               103     -0.853982   7 O  s         
    93      0.437378   6 O  pz               96     -0.438324   6 O  pz        
   107      0.437379   7 O  pz              110     -0.438325   7 O  pz        
    14      0.229135   1 Zn pz               88      0.160586   6 O  s         
 
 Vector   53  Occ=0.000000D+00  E= 7.679270D-01  Symmetry=a
              MO Center= -2.9D-16,  1.0D-16, -5.4D-06, r^2= 7.4D+00
   Bfn.  Coefficient  Atom+Function         Bfn.  Coefficient  Atom+Function  
  ----- ------------  ---------------      ----- ------------  ---------------
    90     -0.935963   6 O  s               104     -0.935963   7 O  s         
    89      0.902188   6 O  s               103      0.902189   7 O  s         
    96     -0.344377   6 O  pz              110      0.344380   7 O  pz        
    33     -0.314732   2 O  s                47     -0.314732   3 O  s         
    61     -0.314732   4 O  s                75     -0.314732   5 O  s         
 
 Vector   54  Occ=0.000000D+00  E= 7.803518D-01  Symmetry=b
              MO Center= -5.2D-16, -1.5D-14, -5.9D-11, r^2= 4.3D+00
   Bfn.  Coefficient  Atom+Function         Bfn.  Coefficient  Atom+Function  
  ----- ------------  ---------------      ----- ------------  ---------------
    36      0.466334   2 O  py               50     -0.466334   3 O  py        
    63      0.466334   4 O  px               77     -0.466334   5 O  px        
    39     -0.414100   2 O  py               53      0.414100   3 O  py        
    66     -0.414100   4 O  px               80      0.414100   5 O  px        
    15      0.223304   1 Zn d -2             20     -0.215099   1 Zn d -2      
 
 Vector   55  Occ=0.000000D+00  E= 8.401888D-01  Symmetry=e+
              MO Center= -4.1D-17,  3.0D-16, -2.3D-06, r^2= 5.7D+00
   Bfn.  Coefficient  Atom+Function         Bfn.  Coefficient  Atom+Function  
  ----- ------------  ---------------      ----- ------------  ---------------
    94      0.657748   6 O  px              108      0.657749   7 O  px        
    91     -0.513394   6 O  px              105     -0.513395   7 O  px        
    12     -0.474486   1 Zn px               95      0.461532   6 O  py        
   109      0.461532   7 O  py               92     -0.360241   6 O  py        
   106     -0.360241   7 O  py               13     -0.332940   1 Zn py        
 
 Vector   56  Occ=0.000000D+00  E= 8.401888D-01  Symmetry=e+
              MO Center= -4.9D-16,  2.4D-16, -2.3D-06, r^2= 5.7D+00
   Bfn.  Coefficient  Atom+Function         Bfn.  Coefficient  Atom+Function  
  ----- ------------  ---------------      ----- ------------  ---------------
    95      0.657748   6 O  py              109      0.657749   7 O  py        
    92     -0.513394   6 O  py              106     -0.513395   7 O  py        
    13     -0.474486   1 Zn py               94     -0.461532   6 O  px        
   108     -0.461532   7 O  px               91      0.360241   6 O  px        
   105      0.360241   7 O  px               12      0.332940   1 Zn px        
 
 Vector   57  Occ=0.000000D+00  E= 8.602509D-01  Symmetry=b
              MO Center= -3.0D-14,  2.8D-14,  7.1D-07, r^2= 6.9D+00
   Bfn.  Coefficient  Atom+Function         Bfn.  Coefficient  Atom+Function  
  ----- ------------  ---------------      ----- ------------  ---------------
    33      0.713948   2 O  s                47      0.713948   3 O  s         
    61     -0.713948   4 O  s                75     -0.713948   5 O  s         
    34     -0.695585   2 O  s                48     -0.695585   3 O  s         
    62      0.695585   4 O  s                76      0.695585   5 O  s         
    38     -0.252401   2 O  px               52      0.252401   3 O  px        
 
 Vector   58  Occ=0.000000D+00  E= 8.792741D-01  Symmetry=e+
              MO Center=  3.6D-15, -2.9D-14,  4.0D-07, r^2= 7.1D+00
   Bfn.  Coefficient  Atom+Function         Bfn.  Coefficient  Atom+Function  
  ----- ------------  ---------------      ----- ------------  ---------------
    62     -0.890868   4 O  s                76      0.890868   5 O  s         
    61      0.826778   4 O  s                75     -0.826778   5 O  s         
    64      0.468866   4 O  py               78      0.468866   5 O  py        
    67     -0.436228   4 O  py               81     -0.436228   5 O  py        
    13      0.215313   1 Zn py               60      0.157495   4 O  s         
 
 Vector   59  Occ=0.000000D+00  E= 8.792741D-01  Symmetry=e+
              MO Center=  3.0D-14,  3.4D-15,  4.0D-07, r^2= 7.1D+00
   Bfn.  Coefficient  Atom+Function         Bfn.  Coefficient  Atom+Function  
  ----- ------------  ---------------      ----- ------------  ---------------
    34     -0.890868   2 O  s                48      0.890868   3 O  s         
    33      0.826778   2 O  s                47     -0.826778   3 O  s         
    35      0.468866   2 O  px               49      0.468866   3 O  px        
    38     -0.436228   2 O  px               52     -0.436228   3 O  px        
    12      0.215313   1 Zn px               32      0.157495   2 O  s         
 
 Vector   60  Occ=0.000000D+00  E= 9.262284D-01  Symmetry=b
              MO Center=  6.3D-15,  8.7D-15, -5.8D-07, r^2= 5.2D+00
   Bfn.  Coefficient  Atom+Function         Bfn.  Coefficient  Atom+Function  
  ----- ------------  ---------------      ----- ------------  ---------------
    40      0.543180   2 O  pz               54      0.543180   3 O  pz        
    68     -0.543180   4 O  pz               82     -0.543180   5 O  pz        
    37     -0.471438   2 O  pz               51     -0.471438   3 O  pz        
    65      0.471438   4 O  pz               79      0.471438   5 O  pz        
 
 Vector   61  Occ=0.000000D+00  E= 9.544437D-01  Symmetry=a
              MO Center=  6.9D-15, -3.6D-15, -5.6D-08, r^2= 5.5D+00
   Bfn.  Coefficient  Atom+Function         Bfn.  Coefficient  Atom+Function  
  ----- ------------  ---------------      ----- ------------  ---------------
    14      0.889379   1 Zn pz               40     -0.610701   2 O  pz        
    54     -0.610701   3 O  pz               68     -0.610701   4 O  pz        
    82     -0.610701   5 O  pz               37      0.456441   2 O  pz        
    51      0.456441   3 O  pz               65      0.456441   4 O  pz        
    79      0.456441   5 O  pz               90     -0.293339   6 O  s         
 
 Vector   62  Occ=0.000000D+00  E= 9.618558D-01  Symmetry=a
              MO Center= -6.1D-17, -2.7D-15,  2.5D-06, r^2= 4.4D+00
   Bfn.  Coefficient  Atom+Function         Bfn.  Coefficient  Atom+Function  
  ----- ------------  ---------------      ----- ------------  ---------------
     4      0.895320   1 Zn s                96      0.733559   6 O  pz        
   110     -0.733557   7 O  pz               93     -0.542223   6 O  pz        
   107      0.542221   7 O  pz                5     -0.437289   1 Zn s         
    33     -0.319810   2 O  s                47     -0.319810   3 O  s         
    61     -0.319810   4 O  s                75     -0.319810   5 O  s         
 
 Vector   63  Occ=0.000000D+00  E= 9.982443D-01  Symmetry=e+
              MO Center= -2.1D-14,  7.1D-15,  3.8D-06, r^2= 5.4D+00
   Bfn.  Coefficient  Atom+Function         Bfn.  Coefficient  Atom+Function  
  ----- ------------  ---------------      ----- ------------  ---------------
    39     -0.608482   2 O  py               53     -0.608482   3 O  py        
    13      0.574028   1 Zn py               66      0.521293   4 O  px        
    80      0.521293   5 O  px               36      0.508606   2 O  py        
    50      0.508606   3 O  py               12     -0.491776   1 Zn px        
    63     -0.435728   4 O  px               77     -0.435728   5 O  px        
 
 Vector   64  Occ=0.000000D+00  E= 9.982443D-01  Symmetry=e+
              MO Center=  8.9D-15,  6.3D-15,  3.8D-06, r^2= 5.4D+00
   Bfn.  Coefficient  Atom+Function         Bfn.  Coefficient  Atom+Function  
  ----- ------------  ---------------      ----- ------------  ---------------
    66     -0.608482   4 O  px               80     -0.608482   5 O  px        
    12      0.574028   1 Zn px               39     -0.521293   2 O  py        
    53     -0.521293   3 O  py               63      0.508606   4 O  px        
    77      0.508606   5 O  px               13      0.491776   1 Zn py        
    36      0.435728   2 O  py               50      0.435728   3 O  py        
 
 Vector   65  Occ=0.000000D+00  E= 1.002998D+00  Symmetry=e+
              MO Center= -7.7D-15,  1.9D-14, -9.6D-06, r^2= 5.6D+00
   Bfn.  Coefficient  Atom+Function         Bfn.  Coefficient  Atom+Function  
  ----- ------------  ---------------      ----- ------------  ---------------
    68      0.547862   4 O  pz               82     -0.547862   5 O  pz        
    95     -0.470568   6 O  py              109      0.470574   7 O  py        
    65     -0.455808   4 O  pz               79      0.455808   5 O  pz        
    92      0.354955   6 O  py              106     -0.354959   7 O  py        
    40     -0.304136   2 O  pz               54      0.304136   3 O  pz        
 
 Vector   66  Occ=0.000000D+00  E= 1.002998D+00  Symmetry=e+
              MO Center= -4.9D-15,  5.5D-15, -9.6D-06, r^2= 5.6D+00
   Bfn.  Coefficient  Atom+Function         Bfn.  Coefficient  Atom+Function  
  ----- ------------  ---------------      ----- ------------  ---------------
    40      0.547862   2 O  pz               54     -0.547862   3 O  pz        
    94     -0.470568   6 O  px              108      0.470574   7 O  px        
    37     -0.455808   2 O  pz               51      0.455808   3 O  pz        
    91      0.354955   6 O  px              105     -0.354959   7 O  px        
    68      0.304136   4 O  pz               82     -0.304136   5 O  pz        
 
 Vector   67  Occ=0.000000D+00  E= 1.047068D+00  Symmetry=a
              MO Center= -3.0D-15, -2.8D-15,  4.7D-08, r^2= 6.5D+00
   Bfn.  Coefficient  Atom+Function         Bfn.  Coefficient  Atom+Function  
  ----- ------------  ---------------      ----- ------------  ---------------
     4      1.056564   1 Zn s                 5     -0.862341   1 Zn s         
    38      0.567807   2 O  px               52     -0.567807   3 O  px        
    67      0.567807   4 O  py               81     -0.567807   5 O  py        
    35     -0.425030   2 O  px               49      0.425030   3 O  px        
    64     -0.425030   4 O  py               78      0.425030   5 O  py        
 
 Vector   68  Occ=0.000000D+00  E= 1.113169D+00  Symmetry=b
              MO Center=  1.9D-15, -3.5D-14, -1.2D-07, r^2= 3.1D+00
   Bfn.  Coefficient  Atom+Function         Bfn.  Coefficient  Atom+Function  
  ----- ------------  ---------------      ----- ------------  ---------------
    38      0.467944   2 O  px               52     -0.467944   3 O  px        
    67     -0.467944   4 O  py               81      0.467944   5 O  py        
    35     -0.415291   2 O  px               49      0.415291   3 O  px        
    64      0.415291   4 O  py               78     -0.415291   5 O  py        
    33      0.356035   2 O  s                47      0.356035   3 O  s         
 
 Vector   69  Occ=0.000000D+00  E= 1.119301D+00  Symmetry=a
              MO Center=  3.8D-15,  3.1D-15,  5.6D-10, r^2= 5.5D+00
   Bfn.  Coefficient  Atom+Function         Bfn.  Coefficient  Atom+Function  
  ----- ------------  ---------------      ----- ------------  ---------------
    39      0.587209   2 O  py               53     -0.587209   3 O  py        
    66     -0.587209   4 O  px               80      0.587209   5 O  px        
    36     -0.489479   2 O  py               50      0.489479   3 O  py        
    63      0.489479   4 O  px               77     -0.489479   5 O  px        
 
 Vector   70  Occ=0.000000D+00  E= 1.220708D+00  Symmetry=a
              MO Center= -6.9D-16, -3.4D-15,  1.2D-06, r^2= 4.3D+00
   Bfn.  Coefficient  Atom+Function         Bfn.  Coefficient  Atom+Function  
  ----- ------------  ---------------      ----- ------------  ---------------
    14      1.444367   1 Zn pz               90     -1.376648   6 O  s         
   104      1.376647   7 O  s                96      1.049932   6 O  pz        
   110      1.049931   7 O  pz               89      0.910914   6 O  s         
   103     -0.910914   7 O  s                93     -0.492109   6 O  pz        
   107     -0.492108   7 O  pz               11     -0.152725   1 Zn pz        
 
 Vector   71  Occ=0.000000D+00  E= 1.368119D+00  Symmetry=e+
              MO Center=  1.5D-16, -2.4D-14,  3.3D-06, r^2= 1.7D+00
   Bfn.  Coefficient  Atom+Function         Bfn.  Coefficient  Atom+Function  
  ----- ------------  ---------------      ----- ------------  ---------------
    21      1.022100   1 Zn d -1             16     -0.619059   1 Zn d -1      
    68     -0.274481   4 O  pz               82      0.274481   5 O  pz        
    95     -0.170170   6 O  py              109      0.170169   7 O  py        
    65      0.168151   4 O  pz               79     -0.168151   5 O  pz        
    92      0.101495   6 O  py              106     -0.101495   7 O  py        
 
 Vector   72  Occ=0.000000D+00  E= 1.368119D+00  Symmetry=e+
              MO Center=  2.1D-16, -1.7D-16,  3.3D-06, r^2= 1.7D+00
   Bfn.  Coefficient  Atom+Function         Bfn.  Coefficient  Atom+Function  
  ----- ------------  ---------------      ----- ------------  ---------------
    23      1.022100   1 Zn d  1             18     -0.619059   1 Zn d  1      
    40      0.274481   2 O  pz               54     -0.274481   3 O  pz        
    94      0.170170   6 O  px              108     -0.170169   7 O  px        
    37     -0.168151   2 O  pz               51      0.168151   3 O  pz        
    91     -0.101495   6 O  px              105      0.101495   7 O  px        
 
 Vector   73  Occ=0.000000D+00  E= 1.370053D+00  Symmetry=e+
              MO Center= -4.5D-13, -4.1D-13, -3.6D-06, r^2= 4.0D+00
   Bfn.  Coefficient  Atom+Function         Bfn.  Coefficient  Atom+Function  
  ----- ------------  ---------------      ----- ------------  ---------------
    13      1.396306   1 Zn py               62     -1.320138   4 O  s         
    76      1.320138   5 O  s                12      0.944897   1 Zn px        
    67      0.934642   4 O  py               81      0.934642   5 O  py        
    34     -0.893353   2 O  s                48      0.893353   3 O  s         
    61      0.822152   4 O  s                75     -0.822152   5 O  s         
 
 Vector   74  Occ=0.000000D+00  E= 1.370053D+00  Symmetry=e+
              MO Center=  7.0D-13, -3.8D-13, -3.6D-06, r^2= 4.0D+00
   Bfn.  Coefficient  Atom+Function         Bfn.  Coefficient  Atom+Function  
  ----- ------------  ---------------      ----- ------------  ---------------
    12      1.396306   1 Zn px               34     -1.320138   2 O  s         
    48      1.320138   3 O  s                13     -0.944897   1 Zn py        
    38      0.934642   2 O  px               52      0.934642   3 O  px        
    62      0.893353   4 O  s                76     -0.893353   5 O  s         
    33      0.822152   2 O  s                47     -0.822152   3 O  s         
 
 Vector   75  Occ=0.000000D+00  E= 1.375442D+00  Symmetry=a
              MO Center= -2.5D-13,  9.9D-13, -1.2D-06, r^2= 4.6D+00
   Bfn.  Coefficient  Atom+Function         Bfn.  Coefficient  Atom+Function  
  ----- ------------  ---------------      ----- ------------  ---------------
     4      1.732129   1 Zn s                34     -1.304774   2 O  s         
    48     -1.304774   3 O  s                62     -1.304774   4 O  s         
    76     -1.304774   5 O  s                90     -1.201669   6 O  s         
   104     -1.201671   7 O  s                 5      0.968223   1 Zn s         
    33      0.788911   2 O  s                47      0.788911   3 O  s         
 
 Vector   76  Occ=0.000000D+00  E= 1.383191D+00  Symmetry=b
              MO Center=  8.8D-15,  1.5D-14,  4.8D-10, r^2= 1.8D+00
   Bfn.  Coefficient  Atom+Function         Bfn.  Coefficient  Atom+Function  
  ----- ------------  ---------------      ----- ------------  ---------------
    20      1.021930   1 Zn d -2             15     -0.611923   1 Zn d -2      
    39     -0.243428   2 O  py               53      0.243428   3 O  py        
    66     -0.243428   4 O  px               80      0.243428   5 O  px        
    36      0.152724   2 O  py               50     -0.152724   3 O  py        
    63      0.152724   4 O  px               77     -0.152724   5 O  px        
 
 Vector   77  Occ=0.000000D+00  E= 1.597054D+00  Symmetry=a
              MO Center= -5.9D-16, -6.6D-14, -4.6D-07, r^2= 2.9D+00
   Bfn.  Coefficient  Atom+Function         Bfn.  Coefficient  Atom+Function  
  ----- ------------  ---------------      ----- ------------  ---------------
    22      1.064754   1 Zn d  0             17     -0.512795   1 Zn d  0      
    34      0.422046   2 O  s                48      0.422046   3 O  s         
    62      0.422046   4 O  s                76      0.422046   5 O  s         
    96      0.385230   6 O  pz              110     -0.385230   7 O  pz        
    90     -0.361029   6 O  s               104     -0.361030   7 O  s         
 
 Vector   78  Occ=0.000000D+00  E= 1.614474D+00  Symmetry=b
              MO Center= -3.5D-15, -1.9D-13, -3.1D-08, r^2= 2.8D+00
   Bfn.  Coefficient  Atom+Function         Bfn.  Coefficient  Atom+Function  
  ----- ------------  ---------------      ----- ------------  ---------------
    24      1.085813   1 Zn d  2             19     -0.515612   1 Zn d  2      
    34     -0.488940   2 O  s                48     -0.488940   3 O  s         
    62      0.488940   4 O  s                76      0.488940   5 O  s         
    38      0.422542   2 O  px               52     -0.422542   3 O  px        
    67     -0.422542   4 O  py               81      0.422542   5 O  py        
 
 Vector   79  Occ=0.000000D+00  E= 2.418587D+00  Symmetry=b
              MO Center=  8.8D-17,  5.7D-17,  2.0D-02, r^2= 4.8D+00
   Bfn.  Coefficient  Atom+Function         Bfn.  Coefficient  Atom+Function  
  ----- ------------  ---------------      ----- ------------  ---------------
    97      0.710513   6 O  d -2            111     -0.703684   7 O  d -2      
 
 Vector   80  Occ=0.000000D+00  E= 2.418804D+00  Symmetry=b
              MO Center=  9.3D-17, -2.1D-16, -2.0D-02, r^2= 4.8D+00
   Bfn.  Coefficient  Atom+Function         Bfn.  Coefficient  Atom+Function  
  ----- ------------  ---------------      ----- ------------  ---------------
   111      0.710404   7 O  d -2             97      0.703574   6 O  d -2      
 
 Vector   81  Occ=0.000000D+00  E= 2.420142D+00  Symmetry=b
              MO Center=  1.7D-17,  5.4D-17,  2.3D-02, r^2= 4.8D+00
   Bfn.  Coefficient  Atom+Function         Bfn.  Coefficient  Atom+Function  
  ----- ------------  ---------------      ----- ------------  ---------------
   101      0.710894   6 O  d  2            115     -0.703126   7 O  d  2      
 
 Vector   82  Occ=0.000000D+00  E= 2.420333D+00  Symmetry=b
              MO Center= -5.0D-16, -4.0D-16, -2.3D-02, r^2= 4.8D+00
   Bfn.  Coefficient  Atom+Function         Bfn.  Coefficient  Atom+Function  
  ----- ------------  ---------------      ----- ------------  ---------------
   115      0.710632   7 O  d  2            101      0.702861   6 O  d  2      
 
 Vector   83  Occ=0.000000D+00  E= 2.441752D+00  Symmetry=e+
              MO Center= -8.1D-15, -1.1D-14,  3.1D-05, r^2= 4.8D+00
   Bfn.  Coefficient  Atom+Function         Bfn.  Coefficient  Atom+Function  
  ----- ------------  ---------------      ----- ------------  ---------------
   100      0.653912   6 O  d  1            114      0.653902   7 O  d  1      
    98     -0.236212   6 O  d -1            112     -0.236208   7 O  d -1      
    44     -0.110792   2 O  d  1             58     -0.110792   3 O  d  1      
    23      0.104116   1 Zn d  1             18     -0.054037   1 Zn d  1      
    70      0.040021   4 O  d -1             84      0.040021   5 O  d -1      
 
 Vector   84  Occ=0.000000D+00  E= 2.441752D+00  Symmetry=e+
              MO Center=  1.3D-15, -7.6D-14,  3.1D-05, r^2= 4.8D+00
   Bfn.  Coefficient  Atom+Function         Bfn.  Coefficient  Atom+Function  
  ----- ------------  ---------------      ----- ------------  ---------------
    98      0.653912   6 O  d -1            112      0.653902   7 O  d -1      
   100      0.236212   6 O  d  1            114      0.236208   7 O  d  1      
    70     -0.110792   4 O  d -1             84     -0.110792   5 O  d -1      
    21      0.104116   1 Zn d -1             16     -0.054037   1 Zn d -1      
    44     -0.040021   2 O  d  1             58     -0.040021   3 O  d  1      
 
 Vector   85  Occ=0.000000D+00  E= 2.447345D+00  Symmetry=e+
[...]
 
 Vector  109  Occ=0.000000D+00  E= 6.465796D+00
              MO Center= -6.5D-10, -2.0D-09,  1.2D-08, r^2= 2.4D-01
   Bfn.  Coefficient  Atom+Function         Bfn.  Coefficient  Atom+Function  
  ----- ------------  ---------------      ----- ------------  ---------------
    30      1.000053   1 Zn f  2      
 
 Vector  110  Occ=0.000000D+00  E= 6.468260D+00
              MO Center= -5.9D-10, -1.8D-09,  1.3D-08, r^2= 2.4D-01
   Bfn.  Coefficient  Atom+Function         Bfn.  Coefficient  Atom+Function  
  ----- ------------  ---------------      ----- ------------  ---------------
    26      1.000000   1 Zn f -2      
 
 Vector  111  Occ=0.000000D+00  E= 6.471511D+00
              MO Center= -5.9D-10, -1.9D-09,  2.1D-08, r^2= 2.4D-01
   Bfn.  Coefficient  Atom+Function         Bfn.  Coefficient  Atom+Function  
  ----- ------------  ---------------      ----- ------------  ---------------
    27      0.794565   1 Zn f -1             25     -0.606898   1 Zn f -3      
 
 Vector  112  Occ=0.000000D+00  E= 6.471511D+00
              MO Center= -6.9D-10, -2.0D-09,  2.1D-08, r^2= 2.4D-01
   Bfn.  Coefficient  Atom+Function         Bfn.  Coefficient  Atom+Function  
  ----- ------------  ---------------      ----- ------------  ---------------
    29      0.794563   1 Zn f  1             31      0.606900   1 Zn f  3      
 
 Vector  113  Occ=0.000000D+00  E= 6.484512D+00
              MO Center= -3.6D-10, -1.1D-09,  4.8D-08, r^2= 2.5D-01
   Bfn.  Coefficient  Atom+Function         Bfn.  Coefficient  Atom+Function  
  ----- ------------  ---------------      ----- ------------  ---------------
    28      1.000368   1 Zn f  0             14      0.093488   1 Zn pz        
    90     -0.076082   6 O  s               104      0.076082   7 O  s         
    96      0.061856   6 O  pz              110      0.061856   7 O  pz        
    89      0.043235   6 O  s               103     -0.043235   7 O  s         
 
 Vector  114  Occ=0.000000D+00  E= 6.490470D+00
              MO Center= -3.6D-10, -5.4D-09,  1.1D-08, r^2= 2.6D-01
   Bfn.  Coefficient  Atom+Function         Bfn.  Coefficient  Atom+Function  
  ----- ------------  ---------------      ----- ------------  ---------------
    25      0.795148   1 Zn f -3             27      0.607337   1 Zn f -1      
    13     -0.155044   1 Zn py               62      0.120676   4 O  s         
    76     -0.120676   5 O  s                67     -0.089432   4 O  py        
    81     -0.089432   5 O  py               61     -0.061160   4 O  s         
    75      0.061160   5 O  s                64      0.025462   4 O  py        
 
 Vector  115  Occ=0.000000D+00  E= 6.490470D+00
              MO Center= -1.8D-09, -1.1D-09,  1.1D-08, r^2= 2.6D-01
   Bfn.  Coefficient  Atom+Function         Bfn.  Coefficient  Atom+Function  
  ----- ------------  ---------------      ----- ------------  ---------------
    31      0.795145   1 Zn f  3             29     -0.607340   1 Zn f  1      
    12     -0.155044   1 Zn px               34      0.120676   2 O  s         
    48     -0.120676   3 O  s                38     -0.089432   2 O  px        
    52     -0.089432   3 O  px               33     -0.061160   2 O  s         
    47      0.061160   3 O  s                35      0.025462   2 O  px        
 

   alpha - beta orbital overlaps 
   ----------------------------- 


   alpha      1      2      3      4      5      6      7      8      9     10
    beta      1      2      5      3      4      6      7      8      9     10
 overlap   1.000  1.000  1.000  1.000  1.000  0.998  0.998  1.000  1.000  1.000


   alpha     11     12     13     14     15     16     17     18     19     20
    beta     11     12     15     13     14     21     20     16     17     18
 overlap   1.000  1.000  1.000  1.000  1.000  0.924  0.999  0.925  1.000  1.000


   alpha     21     22     23     24     25     26     27     28     29     30
    beta     19     26     23     24     25     22     34     40     41     37
 overlap   0.999  0.962  0.974  0.974  0.993  1.000  0.963  0.961  0.961  0.724


   alpha     31     32     33     34     35     36     37     38     39     40
    beta     36     27     42     39     43     44     38     29     28     30
 overlap   0.724  0.743  0.967  0.767  0.749  0.749  1.000  0.747  0.747  0.990


   alpha     41     42     43     44     45     46     47     48     49     50
    beta     35     33     32     31     45     46     47     48     49     51
 overlap   1.000  0.771  0.772  0.999  0.994  0.994  0.995  0.994  0.994  0.991


   alpha     51     52     53     54     55     56     57     58     59     60
    beta     52     54     53     50     61     60     55     56     57     62
 overlap   0.991  0.999  0.990  0.996  0.744  0.744  1.000  0.990  0.990  1.000


   alpha     61     62     63     64     65     66     67     68     69     70
    beta     63     64     58     59     67     68     65     69     66     70
 overlap   0.999  0.936  0.754  0.754  0.993  0.993  0.939  1.000  0.999  0.999


   alpha     71     72     73     74     75     76     77     78     79     80
    beta     73     71     72     74     75     76     78     77     87     88
 overlap   0.992  1.000  1.000  0.999  0.999  0.999  0.994  1.000  0.992  0.994


   alpha     81     82     83     84     85     86     87     88     89     90
    beta     89     90     84     85     82     83     86     97     98     99
 overlap   0.995  0.995  0.974  0.974  0.919  0.919  0.983  0.999  0.853  0.853


   alpha     91     92     93     94     95     96     97     98     99    100
    beta     93     94     92     91     96     95     81    101    102     80
 overlap   0.987  0.987  0.995  1.000  0.933  0.992  1.000  0.963  0.963  0.921


   alpha    101    102    103    104    105    106    107    108    109    110
    beta     79    103    100    104    105    106    107    108    111    112
 overlap   0.921  0.910  0.997  0.983  0.966  0.966  0.963  0.994  0.987  0.987


   alpha    111    112    113    114    115
    beta    110    109    113    114    115
 overlap   1.000  1.000  1.000  0.987  0.987

     --------------------------
     Expectation value of S2:  
     --------------------------
      <S2> =      6.0398 (Exact =     2.0000)
 

 center of mass
 --------------
 x =   0.00000000 y =   0.00000000 z =   0.00000000

 moments of inertia (a.u.)
 ------------------
         960.739095236686           0.000000000000           0.000000000000
           0.000000000000         960.739095236686           0.000000000000
           0.000000000000           0.000000000000         913.901636372590
 
     Multipole analysis of the density
     ---------------------------------
 
     L   x y z        total         alpha         beta         nuclear
     -   - - -        -----         -----         ----         -------
     0   0 0 0     -0.000000    -40.000000    -38.000000     78.000000
 
     1   1 0 0     -0.000028     -0.000015     -0.000012      0.000000
     1   0 1 0     -0.000083     -0.000045     -0.000038      0.000000
     1   0 0 1      0.000351     -0.000001      0.000352      0.000000
 
     2   2 0 0    -37.287883   -125.952814   -139.883185    228.548116
     2   1 1 0      0.000000      0.000000     -0.000000      0.000000
     2   1 0 1     -0.000000     -0.000000     -0.000000      0.000000
     2   0 2 0    -37.290171   -125.953693   -139.884594    228.548116
     2   0 1 1      0.000000      0.000000      0.000000      0.000000
     2   0 0 2    -28.955958   -172.892932   -108.037324    251.974298
 
 
               ZORA NMR Hyperfine
               ------------------
 
 
            Hyperfine Tensor (in au)
            ------------------------
 
nat_slc=   1
 In hnd_hyperfine_zora:: atomnr(  1)=    1
(con,gnu,isonr,const_hfine)(  1,  1)=(    95.52131600,     0.35019160, 67,    33.45076249)

 Read ZORA NMR data from ./zno_g.zora_nmrhyp

                                NWChem CPHF Module
                                ------------------
 
 
  scftype          =     UHF 
  nalpha           =       40
  nbeta            =       38
  variables        =     5926
  # of vectors     =        3
  tolerance        = 0.10D-03
  level shift      = 0.00D+00
  max iterations   =       50
  max subspace     =       30

 SCF residual:   1.427161221453796E-004


Iterative solution of linear equations
  No. of variables     5926
  No. of equations        3
  Maximum subspace       30
        Iterations       50
       Convergence  1.0D-04
        Start time    363.6


   iter   nsub   residual    time
   ----  ------  --------  ---------
     1      3    1.24D-03     384.4
     2      6    3.13D-04     405.3
     3      9    4.86D-03     427.1
     4     12    3.43D-04     448.1
     5     15    5.12D-04     469.6
     6     18    1.30D-04     491.9
     7     21    8.45D-05     513.5

 Wrote CPHF data to ./zno_g.zora_hypcphf

NATOMS=  1
NW:(dia,par,dia+par)(1,1,1)=(     0.63507112      0.04086905      0.67594017 )
NW:(dia,par,dia+par)(1,2,1)=(    -0.00000000     -0.00000005     -0.00000005 )
NW:(dia,par,dia+par)(1,3,1)=(     0.00000001     -0.00000000      0.00000001 )
NW:(dia,par,dia+par)(2,1,1)=(    -0.00000000     -0.00000005     -0.00000005 )
NW:(dia,par,dia+par)(2,2,1)=(     0.63505744      0.04066359      0.67572104 )
NW:(dia,par,dia+par)(2,3,1)=(    -0.00000004      0.00000000     -0.00000004 )
NW:(dia,par,dia+par)(3,1,1)=(     0.00000001     -0.00000000      0.00000001 )
NW:(dia,par,dia+par)(3,2,1)=(    -0.00000004      0.00000000     -0.00000004 )
NW:(dia,par,dia+par)(3,3,1)=(     1.76562386     -0.05774072      1.70788314 )
      Atom:    1  Zn

 ----- A-tensor in atomic units ----         ------------- A (MHz) ------------

 FC, SD terms:
  isotropic    A(au)      1.0119                           A(MHz)     33.8494
      0.6351     -0.0000      0.0000            21.2436     -0.0000      0.0000
     -0.0000      0.6351     -0.0000            -0.0000     21.2432     -0.0000
      0.0000     -0.0000      1.7656             0.0000     -0.0000     59.0615

 PSO-Spin-Orbit terms:
  isotropic    A(au)      0.0079                           A(MHz)      0.2653
      0.0409     -0.0000     -0.0000             1.3671     -0.0000     -0.0000
     -0.0000      0.0407      0.0000            -0.0000      1.3602      0.0000
     -0.0000      0.0000     -0.0577            -0.0000      0.0000     -1.9315

 Total hyperfine coupling tensor:
  isotropic    A(au)      1.0198                           A(MHz)     34.1147
      0.6759     -0.0000      0.0000            22.6107     -0.0000      0.0000
     -0.0000      0.6757     -0.0000            -0.0000     22.6034     -0.0000
      0.0000     -0.0000      1.7079             0.0000     -0.0000     57.1300

 In principal axis representation: total span,skew and asymm
        span        skew       asymm               span        skew       asymm
      1.0322      0.9996      0.0003            34.5266     33.4366      0.0107

 Principal Components and Axis System
        1           2           3                 1           2           3
      0.6757      0.6759      1.7079            22.6034     22.6107     57.1300

1     0.0002      1.0000      0.0000
2     1.0000     -0.0002     -0.0000
3     0.0000     -0.0000      1.0000



 
                  ZORA g-Shift
                  ------------
 
 
             g-Shift Tensor (in ppm)
             -----------------------
 

 Read ZORA NMR data from ./zno_g.zora_nmrgshift


 Read ZORA NMR data from ./zno_g.zora_nmrgshift_AB

nocc=( 40, 38) nclos=(  0,  0) nvirt=( 75, 77) scftyp=UHF)
 coeffpol=   2.00000000000000     
                                NWChem CPHF Module
                                ------------------
 
 
  scftype          =     UHF 
  nalpha           =       40
  nbeta            =       38
  variables        =     5926
  # of vectors     =        3
  tolerance        = 0.10D-03
  level shift      = 0.00D+00
  max iterations   =       50
  max subspace     =       30

 SCF residual:   1.427161221450604E-004


Iterative solution of linear equations
  No. of variables     5926
  No. of equations        3
  Maximum subspace       30
        Iterations       50
       Convergence  1.0D-04
        Start time    615.2


   iter   nsub   residual    time
   ----  ------  --------  ---------
     1      3    3.10D+00     641.4
     2      6    4.73D+00     667.6
     3      9    5.29D-01     694.5
     4     12    5.06D-01     721.1
     5     15    1.44D+00     747.9
     6     18    1.12D-01     774.6
     7     21    3.19D-02     801.7
     8     24    8.01D-02     829.9
     9     27    1.25D-02     856.8
    10     30    1.96D-03     883.5
    11     30    3.04D-04     910.7
    12     30    1.23D-04     937.7
    13     30    3.86D-05     966.5

 Wrote CPHF data to ./zno_g.zora_gshiftcphf

NW-1:(dia,gauge,OO,OV,Totpar)(1,1)=(  -24.805370    -0.001620     0.033915   -24.531585   -24.499290 )
NW-1:(dia,gauge,OO,OV,Totpar)(1,2)=(   -0.000000    -0.000000    -0.000032    -0.001590    -0.001622 )
NW-1:(dia,gauge,OO,OV,Totpar)(1,3)=(   -0.000000    -0.000000     0.000000    -0.000001    -0.000001 )
NW-1:(dia,gauge,OO,OV,Totpar)(2,1)=(    0.000000     0.000000     0.000032     0.001707     0.001739 )
NW-1:(dia,gauge,OO,OV,Totpar)(2,2)=(  -24.805370    -0.001620     0.033930   -24.534216   -24.501906 )
NW-1:(dia,gauge,OO,OV,Totpar)(2,3)=(    0.000000     0.000000     0.000000    -0.000012    -0.000012 )
NW-1:(dia,gauge,OO,OV,Totpar)(3,1)=(   -0.000000     0.000000    -0.000000    -0.000002    -0.000002 )
NW-1:(dia,gauge,OO,OV,Totpar)(3,2)=(    0.000000     0.000000     0.000000    -0.000003    -0.000003 )
NW-1:(dia,gauge,OO,OV,Totpar)(3,3)=(  -24.920235     0.005830     0.131451   -27.757484   -27.620203 )
NW-2:(dia,gauge,OO,OV,Totpar)(1,1)=(  -24.818229     0.004539     0.118549   -40.546027   -40.422939 )
NW-2:(dia,gauge,OO,OV,Totpar)(1,2)=(    0.000000     0.000000    -0.000003    -0.000045    -0.000048 )
NW-2:(dia,gauge,OO,OV,Totpar)(1,3)=(    0.000000    -0.000000    -0.000000     0.000001     0.000001 )
NW-2:(dia,gauge,OO,OV,Totpar)(2,1)=(   -0.000000    -0.000000     0.000003    -0.000259    -0.000256 )
NW-2:(dia,gauge,OO,OV,Totpar)(2,2)=(  -24.818231     0.004539     0.118561   -40.543160   -40.420061 )
NW-2:(dia,gauge,OO,OV,Totpar)(2,3)=(   -0.000000     0.000000     0.000000     0.000002     0.000002 )
NW-2:(dia,gauge,OO,OV,Totpar)(3,1)=(    0.000000    -0.000000    -0.000000     0.000001     0.000001 )
NW-2:(dia,gauge,OO,OV,Totpar)(3,2)=(   -0.000000     0.000000     0.000000    -0.000006    -0.000006 )
NW-2:(dia,gauge,OO,OV,Totpar)(3,3)=(  -24.752175    -0.003563    -0.550449   -28.969440   -29.523452 )
NW-T:(dia,gauge,OO,OV,Totpar)(1,1)=(    0.012860    -0.006159    -0.084634    16.014442    15.923648 )
NW-T:(dia,gauge,OO,OV,Totpar)(1,2)=(    0.000000    -0.000000    -0.000029    -0.001545    -0.001574 )
NW-T:(dia,gauge,OO,OV,Totpar)(1,3)=(   -0.000000     0.000000     0.000000    -0.000002    -0.000002 )
NW-T:(dia,gauge,OO,OV,Totpar)(2,1)=(    0.000000     0.000000     0.000029     0.001966     0.001996 )
NW-T:(dia,gauge,OO,OV,Totpar)(2,2)=(    0.012861    -0.006159    -0.084631    16.008944    15.918155 )
NW-T:(dia,gauge,OO,OV,Totpar)(2,3)=(    0.000000    -0.000000    -0.000000    -0.000014    -0.000014 )
NW-T:(dia,gauge,OO,OV,Totpar)(3,1)=(   -0.000000     0.000000     0.000000    -0.000004    -0.000004 )
NW-T:(dia,gauge,OO,OV,Totpar)(3,2)=(    0.000000    -0.000000    -0.000000     0.000003     0.000003 )
NW-T:(dia,gauge,OO,OV,Totpar)(3,3)=(   -0.168059     0.009393     0.681900     1.211956     1.903248 )
        Diamagnetic
      0.0129      0.0000     -0.0000
      0.0000      0.0129      0.0000
     -0.0000      0.0000     -0.1681

        Paramagnetic
     15.9236      0.0002     -0.0000
      0.0002     15.9182     -0.0000
     -0.0000     -0.0000      1.9032

        Total g shift Tensor
     15.9365      0.0002     -0.0000
      0.0002     15.9310     -0.0000
     -0.0000     -0.0000      1.7352

           isotropic =      11.2009
          anisotropy =       7.1034

          Principal Components and Axis System
                 1           2           3
               15.9365     15.9310      1.7352

      1         0.9993     -0.0383      0.0000
      2         0.0383      0.9993      0.0000
      3        -0.0000     -0.0000      1.0000




 Task  times  cpu:      905.5s     wall:      945.4s
 
 
                                NWChem Input Module
                                -------------------
 
 
 Summary of allocated global arrays
-----------------------------------
  array 0 => double precision dft_zora_Hyperfine: g_AtNr(1,1),  handle: -928 



                         GA Statistics for process    0
                         ------------------------------

       create   destroy   get      put      acc     scatter   gather  read&inc
calls: 3229     3228     8.04e+06 6.66e+04 1.84e+06  953        0     5537     
number of processes/call 1.01e+00 2.15e+00 1.06e+00 0.00e+00 0.00e+00
bytes total:             3.44e+09 3.03e+08 2.46e+09 2.34e+04 0.00e+00 4.43e+04
bytes remote:            1.25e+08 4.76e+07 5.84e+08 0.00e+00 0.00e+00 0.00e+00
Max memory consumed for GA by this process: 9061696 bytes
 
MA_summarize_allocated_blocks: starting scan ...
MA_summarize_allocated_blocks: scan completed: 0 heap blocks, 0 stack blocks
MA usage statistics:

	allocation statistics:
					      heap	     stack
					      ----	     -----
	current number of blocks	         0	         0
	maximum number of blocks	        34	        73
	current total bytes		         0	         0
	maximum total bytes		  14564312	  24873784
	maximum total K-bytes		     14565	     24874
	maximum total M-bytes		        15	        25
 
 
                                     CITATION
                                     --------
                Please cite the following reference when publishing
                           results obtained with NWChem:
 
                 M. Valiev, E.J. Bylaska, N. Govind, K. Kowalski,
              T.P. Straatsma, H.J.J. van Dam, D. Wang, J. Nieplocha,
                        E. Apra, T.L. Windus, W.A. de Jong
                 "NWChem: a comprehensive and scalable open-source
                  solution for large scale molecular simulations"
                      Comput. Phys. Commun. 181, 1477 (2010)
                           doi:10.1016/j.cpc.2010.04.018
 
                                      AUTHORS
                                      -------
          E. Apra, E. J. Bylaska, W. A. de Jong, N. Govind, K. Kowalski,
       T. P. Straatsma, M. Valiev, H. J. J. van Dam, D. Wang, T. L. Windus,
        J. Hammond, J. Autschbach, K. Bhaskaran-Nair, J. Brabec, K. Lopata,
       S. A. Fischer, S. Krishnamoorthy, W. Ma, M. Klemm, O. Villa, Y. Chen,
    V. Anisimov, F. Aquino, S. Hirata, M. T. Hackler, V. Konjkov, T. Risthaus,
       M. Malagoli, A. Marenich, A. Otero-de-la-Roza, J. Mullin, P. Nichols,
      R. Peverati, J. Pittner, Y. Zhao, P.-D. Fan, A. Fonari, M. Williamson,
      R. J. Harrison, J. R. Rehr, M. Dupuis, D. Silverstein, D. M. A. Smith,
            J. Nieplocha, V. Tipparaju, M. Krishnan, B. E. Van Kuiken,
        A. Vazquez-Mayagoitia, L. Jensen, M. Swart, Q. Wu, T. Van Voorhis,
     A. A. Auer, M. Nooijen, L. D. Crosby, E. Brown, G. Cisneros, G. I. Fann,
   H. Fruchtl, J. Garza, K. Hirao, R. A. Kendall, J. A. Nichols, K. Tsemekhman,
    K. Wolinski, J. Anchell, D. E. Bernholdt, P. Borowski, T. Clark, D. Clerc,
   H. Dachsel, M. J. O. Deegan, K. Dyall, D. Elwood, E. Glendening, M. Gutowski,
   A. C. Hess, J. Jaffe, B. G. Johnson, J. Ju, R. Kobayashi, R. Kutteh, Z. Lin,
   R. Littlefield, X. Long, B. Meng, T. Nakajima, S. Niu, L. Pollack, M. Rosing,
   K. Glaesemann, G. Sandrone, M. Stave, H. Taylor, G. Thomas, J. H. van Lenthe,
                               A. T. Wong, Z. Zhang.

 Total times  cpu:      926.3s     wall:      966.7s
