 argument  1 = /home/edo/park/nwchem/QA/tests/dft_hyperf_zno6bq/dft_hyperf_zno6bq.nw
 


============================== echo of input deck ==============================
echo
start dft_zorahyperf_zno6bq
title dft_zorahyperf_zno6bq


start zno_g
geometry
symmetry c4
zn 0. 0. 0.
O  2. 0. 0
O -2. 0. 0
O  0. 2. 0.
O  0. -2. 0.
O  0. 0. 2.1
O  0. 0. -2.1
bqZn  4.  0.  0. charge 1d-20
bqZn -4.  0.  0. charge 1d-20
bqZn  0.  4.  0. charge 1d-20
bqZn  0. -4.  0. charge 1d-20
bqZn  0.  0. -4.2 charge 1d-20
bqZn  0.  0.  4.2 charge 1d-20
end
charge -10
BASIS "ao basis" spherical
* library def2-svp
end
set tolguess 1d-3
charge 0
dft
# sym off
# adapt off
 maxiter 199
 odft
 mult 3
 xc pbe0
 grid xfine
 tolerances tight
 convergence energy 1d-8 lshift 0.17
 vectors input atomic
 end
task dft
set dft:no_prune t
relativistic
 zora on
 zora:cutoff_NMR 1d-8
 zora:cutoff 1d-30
end

property
 hyperfine 1 1
 gshift
end
task dft property
================================================================================


                                         
                                         
 
 
              Northwest Computational Chemistry Package (NWChem) 6.6
              ------------------------------------------------------
 
 
                    Environmental Molecular Sciences Laboratory
                       Pacific Northwest National Laboratory
                                Richland, WA 99352
 
                              Copyright (c) 1994-2015
                       Pacific Northwest National Laboratory
                            Battelle Memorial Institute
 
             NWChem is an open-source computational chemistry package
                        distributed under the terms of the
                      Educational Community License (ECL) 2.0
             A copy of the license is included with this distribution
                              in the LICENSE.TXT file
 
                                  ACKNOWLEDGMENT
                                  --------------

            This software and its documentation were developed at the
            EMSL at Pacific Northwest National Laboratory, a multiprogram
            national laboratory, operated for the U.S. Department of Energy
            by Battelle under Contract Number DE-AC05-76RL01830. Support
            for this work was provided by the Department of Energy Office
            of Biological and Environmental Research, Office of Basic
            Energy Sciences, and the Office of Advanced Scientific Computing.


           Job information
           ---------------

    hostname        = lagrange
    program         = /home/edo/park/nwchem/bin/LINUX64/nwchem
    date            = Wed Mar  1 19:36:24 2017

    compiled        = Wed_Mar_01_19:29:46_2017
    source          = /home/edo/park/nwchem
    nwchem branch   = Development
    nwchem revision = 28610
    ga revision     = 10742
    input           = /home/edo/park/nwchem/QA/tests/dft_hyperf_zno6bq/dft_hyperf_zno6bq.nw
    prefix          = zno_g.
    data base       = ./zno_g.db
    status          = startup
    nproc           =        3
    time left       =     -1s



           Memory information
           ------------------

    heap     =   13107200 doubles =    100.0 Mbytes
    stack    =   13107197 doubles =    100.0 Mbytes
    global   =   26214400 doubles =    200.0 Mbytes (distinct from heap & stack)
    total    =   52428797 doubles =    400.0 Mbytes
    verify   = yes
    hardfail = no 


           Directory information
           ---------------------
 
  0 permanent = .
  0 scratch   = .
 
 
 
 
                                NWChem Input Module
                                -------------------
 
 
                               dft_zorahyperf_zno6bq
                               ---------------------

 Scaling coordinates for geometry "geometry" by  1.889725989
 (inverse scale =  0.529177249)

 Turning off AUTOSYM since
 SYMMETRY directive was detected!
 

          ------
          auto-z
          ------
  Looking for out-of-plane bends
 
 
                             Geometry "geometry" -> ""
                             -------------------------
 
 Output coordinates in angstroms (scale by  1.889725989 to convert to a.u.)
 
  No.       Tag          Charge          X              Y              Z
 ---- ---------------- ---------- -------------- -------------- --------------
    1 zn                  30.0000     0.00000000     0.00000000     0.00000000
    2 O                    8.0000     2.00000000     0.00000000     0.00000000
    3 O                    8.0000    -2.00000000     0.00000000     0.00000000
    4 O                    8.0000     0.00000000     2.00000000     0.00000000
    5 O                    8.0000     0.00000000    -2.00000000     0.00000000
    6 O                    8.0000     0.00000000     0.00000000     2.10000000
    7 O                    8.0000     0.00000000     0.00000000    -2.10000000
    8 bqZn                 0.0000     4.00000000     0.00000000     0.00000000
    9 bqZn                 0.0000    -4.00000000     0.00000000     0.00000000
   10 bqZn                 0.0000     0.00000000     4.00000000     0.00000000
   11 bqZn                 0.0000     0.00000000    -4.00000000     0.00000000
   12 bqZn                 0.0000     0.00000000     0.00000000    -4.20000000
   13 bqZn                 0.0000     0.00000000     0.00000000     4.20000000
 
      Atomic Mass 
      ----------- 
 
      zn                63.929100
      O                 15.994910
 

 Effective nuclear repulsion energy (a.u.)     541.2800173786

            Nuclear Dipole moment (a.u.) 
            ----------------------------
        X                 Y               Z
 ---------------- ---------------- ----------------
     0.0000000000     0.0000000000     0.0000000000
 
      Symmetry information
      --------------------
 
 Group name             C4        
 Group number              6
 Group order               4
 No. of unique centers     7
 
      Symmetry unique atoms
 
     1    2    6    7    8   12   13
 


                                Z-matrix (autoz)
                                -------- 

 Units are Angstrom for bonds and degrees for angles
 
      Type          Name      I     J     K     L     M      Value
      ----------- --------  ----- ----- ----- ----- ----- ----------
    1 Stretch                  1     2                       2.00000
    2 Stretch                  1     3                       2.00000
    3 Stretch                  1     4                       2.00000
    4 Stretch                  1     5                       2.00000
    5 Stretch                  1     6                       2.10000
    6 Stretch                  1     7                       2.10000
    7 Stretch                  2     8                       2.00000
    8 Stretch                  3     9                       2.00000
    9 Stretch                  4    10                       2.00000
   10 Stretch                  5    11                       2.00000
   11 Stretch                  6    13                       2.10000
   12 Stretch                  7    12                       2.10000
   13 Bend                     2     1     4                90.00000
   14 Bend                     2     1     5                90.00000
   15 Bend                     2     1     6                90.00000
   16 Bend                     2     1     7                90.00000
   17 Bend                     3     1     4                90.00000
   18 Bend                     3     1     5                90.00000
   19 Bend                     3     1     6                90.00000
   20 Bend                     3     1     7                90.00000
   21 Bend                     4     1     6                90.00000
   22 Bend                     4     1     7                90.00000
   23 Bend                     5     1     6                90.00000
   24 Bend                     5     1     7                90.00000
   25 Bend                     8     1     4                90.00000
   26 Bend                     8     1     5                90.00000
   27 Bend                     8     1     6                90.00000
   28 Bend                     8     1     7                90.00000
   29 Bend                     9     1     4                90.00000
   30 Bend                     9     1     5                90.00000
   31 Bend                     9     1     6                90.00000
   32 Bend                     9     1     7                90.00000
   33 Bend                    10     1     2                90.00000
   34 Bend                    10     1     3                90.00000
   35 Bend                    10     1     6                90.00000
   36 Bend                    10     1     7                90.00000
   37 Bend                    11     1     2                90.00000
   38 Bend                    11     1     3                90.00000
   39 Bend                    11     1     6                90.00000
   40 Bend                    11     1     7                90.00000
   41 Bend                    12     1     2                90.00000
   42 Bend                    12     1     3                90.00000
   43 Bend                    12     1     4                90.00000
   44 Bend                    12     1     5                90.00000
   45 Bend                    13     1     2                90.00000
   46 Bend                    13     1     3                90.00000
   47 Bend                    13     1     4                90.00000
   48 Bend                    13     1     5                90.00000
   49 Torsion                  1     2     4    10         180.00000
   50 Torsion                  1     2     5    11         180.00000
   51 Torsion                  1     2     6    13         180.00000
   52 Torsion                  1     2     7    12         180.00000
   53 Torsion                  1     3     4    10         180.00000
   54 Torsion                  1     3     5    11         180.00000
   55 Torsion                  1     3     6    13         180.00000
   56 Torsion                  1     3     7    12         180.00000
   57 Torsion                  1     4     2     8         180.00000
   58 Torsion                  1     4     3     9         180.00000
   59 Torsion                  1     4     6    13         180.00000
   60 Torsion                  1     4     7    12         180.00000
   61 Torsion                  1     5     2     8         180.00000
   62 Torsion                  1     5     3     9         180.00000
   63 Torsion                  1     5     6    13         180.00000
   64 Torsion                  1     5     7    12         180.00000
   65 Torsion                  1     6     2     8         180.00000
   66 Torsion                  1     6     3     9         180.00000
   67 Torsion                  1     6     4    10         180.00000
   68 Torsion                  1     6     5    11         180.00000
   69 Torsion                  1     7     2     8         180.00000
   70 Torsion                  1     7     3     9         180.00000
   71 Torsion                  1     7     4    10         180.00000
   72 Torsion                  1     7     5    11         180.00000
 
 
            XYZ format geometry
            -------------------
    13
 geometry
 zn                    0.00000000     0.00000000     0.00000000
 O                     2.00000000     0.00000000     0.00000000
 O                    -2.00000000     0.00000000     0.00000000
 O                     0.00000000     2.00000000     0.00000000
 O                     0.00000000    -2.00000000     0.00000000
 O                     0.00000000     0.00000000     2.10000000
 O                     0.00000000     0.00000000    -2.10000000
 bqZn                  4.00000000     0.00000000     0.00000000
 bqZn                 -4.00000000     0.00000000     0.00000000
 bqZn                  0.00000000     4.00000000     0.00000000
 bqZn                  0.00000000    -4.00000000     0.00000000
 bqZn                  0.00000000     0.00000000    -4.20000000
 bqZn                  0.00000000     0.00000000     4.20000000
 
 ==============================================================================
                                internuclear distances
 ------------------------------------------------------------------------------
       center one      |      center two      | atomic units |  angstroms
 ------------------------------------------------------------------------------
    2 O                |   1 zn               |     3.77945  |     2.00000
    3 O                |   1 zn               |     3.77945  |     2.00000
    4 O                |   1 zn               |     3.77945  |     2.00000
    5 O                |   1 zn               |     3.77945  |     2.00000
    8 bqZn             |   2 O                |     3.77945  |     2.00000
    9 bqZn             |   3 O                |     3.77945  |     2.00000
   10 bqZn             |   4 O                |     3.77945  |     2.00000
   11 bqZn             |   5 O                |     3.77945  |     2.00000
   12 bqZn             |   7 O                |     3.96842  |     2.10000
   13 bqZn             |   6 O                |     3.96842  |     2.10000
 ------------------------------------------------------------------------------
                         number of included internuclear distances:         10
 ==============================================================================



 ==============================================================================
                                 internuclear angles
 ------------------------------------------------------------------------------
        center 1       |       center 2       |       center 3       |  degrees
 ------------------------------------------------------------------------------
    2 O                |   1 zn               |   3 O                |   180.00
    2 O                |   1 zn               |   4 O                |    90.00
    2 O                |   1 zn               |   5 O                |    90.00
    3 O                |   1 zn               |   4 O                |    90.00
    3 O                |   1 zn               |   5 O                |    90.00
    4 O                |   1 zn               |   5 O                |   180.00
    1 zn               |   2 O                |   8 bqZn             |   180.00
    1 zn               |   3 O                |   9 bqZn             |   180.00
    1 zn               |   4 O                |  10 bqZn             |   180.00
    1 zn               |   5 O                |  11 bqZn             |   180.00
 ------------------------------------------------------------------------------
                            number of included internuclear angles:         10
 ==============================================================================





 Summary of "ao basis" -> "" (spherical)
 ------------------------------------------------------------------------------
       Tag                 Description            Shells   Functions and Types
 ---------------- ------------------------------  ------  ---------------------
 *                          def2-svp                  on all atoms 


 
                                 NWChem DFT Module
                                 -----------------
 
 
                               dft_zorahyperf_zno6bq
 
 
                      Basis "ao basis" -> "ao basis" (spherical)
                      -----
  zn (Zinc)
  ---------
            Exponent  Coefficients 
       -------------- ---------------------------------------------------------
  1 S  8.20007116E+04  0.001421
  1 S  1.23124718E+04  0.010891
  1 S  2.80139442E+03  0.054057
  1 S  7.90994243E+02  0.188475
  1 S  2.57565511E+02  0.383465
  1 S  8.88149334E+01  0.297238
 
  2 S  1.71863537E+02 -0.110518
  2 S  2.03025348E+01  0.646077
  2 S  8.34641231E+00  0.442201
 
  3 S  1.48475369E+01 -0.227053
  3 S  2.44950295E+00  0.724332
  3 S  9.98458218E-01  0.448365
 
  4 S  1.18913079E-01  1.000000
 
  5 S  4.22974288E-02  1.000000
 
  6 P  1.07151854E+03  0.009277
  6 P  2.52697122E+02  0.069541
  6 P  8.01008291E+01  0.271568
  6 P  2.89033932E+01  0.534014
  6 P  1.07688999E+01  0.345013
 
  7 P  5.64462125E+00  0.341296
  7 P  2.16782913E+00  0.563905
  7 P  8.05408983E-01  0.236761
 
  8 P  1.62455000E-01  1.000000
 
  9 D  5.60889392E+01  0.029589
  9 D  1.57519089E+01  0.158726
  9 D  5.31158124E+00  0.379762
  9 D  1.77379049E+00  0.468990
 
 10 D  5.19755837E-01  1.000000
 
 11 F  2.61400000E+00  1.000000
 
  O (Oxygen)
  ----------
            Exponent  Coefficients 
       -------------- ---------------------------------------------------------
  1 S  2.26617678E+03 -0.005343
  1 S  3.40870102E+02 -0.039890
  1 S  7.73631352E+01 -0.178539
  1 S  2.14796449E+01 -0.464277
  1 S  6.65894331E+00 -0.443097
 
  2 S  8.09759757E-01  1.000000
 
  3 S  2.55307722E-01  1.000000
 
  4 P  1.77215043E+01  0.043395
  4 P  3.86355054E+00  0.230941
  4 P  1.04809209E+00  0.513753
 
  5 P  2.76415444E-01  1.000000
 
  6 D  1.20000000E+00  1.000000
 


 Summary of "ao basis" -> "ao basis" (spherical)
 ------------------------------------------------------------------------------
       Tag                 Description            Shells   Functions and Types
 ---------------- ------------------------------  ------  ---------------------
 zn                         def2-svp                11       31   5s3p2d1f
 O                          def2-svp                 6       14   3s2p1d




 Summary of "ao basis" -> "ao basis" (spherical)
 ------------------------------------------------------------------------------
       Tag                 Description            Shells   Functions and Types
 ---------------- ------------------------------  ------  ---------------------
 zn                         def2-svp                11       31   5s3p2d1f
 O                          def2-svp                 6       14   3s2p1d


      Symmetry analysis of basis
      --------------------------
 
        a          37
        b          24
        e+         27
        e-         27
 
  Caching 1-el integrals 
  bef inpa 
 atomic                                                                         
                                                                                
                                                                                
                    
  itol2e modified to match energy
  convergence criterion.
  tol_rho modified to match energy
  convergence criterion.
 
            General Information
            -------------------
          SCF calculation type: DFT
          Wavefunction type:  spin polarized.
          No. of atoms     :    13
          No. of electrons :    78
           Alpha electrons :    40
            Beta electrons :    38
          Charge           :     0
          Spin multiplicity:     3
          Use of symmetry is: on ; symmetry adaption is: on 
          Maximum number of iterations: 199
          AO basis - number of functions:   115
                     number of shells:    47
          Convergence on energy requested:  1.00D-08
          Convergence on density requested:  1.00D-05
          Convergence on gradient requested:  5.00D-04
 
              XC Information
              --------------
                         PBE0 Method XC Functional
                     Hartree-Fock (Exact) Exchange  0.250          
          PerdewBurkeErnzerhof Exchange Functional  0.750          
            Perdew 1991 LDA Correlation Functional  1.000 local    
           PerdewBurkeErnz. Correlation Functional  1.000 non-local
 
             Grid Information
             ----------------
          Grid used for XC integration:  xfine     
          Radial quadrature: Mura-Knowles        
          Angular quadrature: Lebedev. 
          Tag              B.-S. Rad. Rad. Pts. Rad. Cut. Ang. Pts.
          ---              ---------- --------- --------- ---------
          zn                  1.35      160           8.0      1454
          O                   0.60      100          10.0      1454
          bqZn                0.00        0           0.0         0
          Grid pruning is: on 
          Number of quadrature shells:   460
          Spatial weights used:  Erf1
 
          Convergence Information
          -----------------------
          Convergence aids based upon iterative change in 
          total energy or number of iterations. 
          Levelshifting, if invoked, occurs when the 
          HOMO/LUMO gap drops below (HL_TOL):  1.00D-02
          DIIS, if invoked, will attempt to extrapolate 
          using up to (NFOCK): 10 stored Fock matrices.

  bef inpa 
 atomic                                                                         
                                                                                
                                                                                
                    
  aft inpa 
 atomic                                                                         
                                                                                
                                                                                
                    
  bef inpa 
 atomic                                                                         
                                                                                
                                                                                
                    
  aft inpa 
 atomic                                                                         
                                                                                
                                                                                
                    
                    Damping( 0%)  Levelshifting(0.2)       DIIS
                  --------------- ------------------- ---------------
          dE  on:    start            ASAP                start   
          dE off:    2 iters        199 iters           199 iters 

 
      Screening Tolerance Information
      -------------------------------
          Density screening/tol_rho:  1.00D-11
          AO Gaussian exp screening on grid/accAOfunc:  18
          CD Gaussian exp screening on grid/accCDfunc:  20
          XC Gaussian exp screening on grid/accXCfunc:  20
          Schwarz screening/accCoul:  1.00D-09

  aft inpa 
 atomic                                                                         
                                                                                
                                                                                
                    
 
      Superposition of Atomic Density Guess
      -------------------------------------
 
 Sum of atomic energies:       -2225.70840314
 
      Non-variational initial energy
      ------------------------------

 Total energy =   -2223.783750
 1-e energy   =   -4184.444935
 2-e energy   =    1419.381168
 HOMO         =      -0.374998
 LUMO         =      -0.365681
 
 
   Symmetry analysis of molecular orbitals - initial alpha
   -------------------------------------------------------
 
  Numbering of irreducible representations: 
 
     1 a           2 b           3 e+          4 e-      
 
  Orbital symmetries:
 
     1 a           2 a           3 a           4 e+          5 e+      
     6 b           7 a           8 e+          9 e+         10 a       
    11 a          12 a          13 e+         14 e+         15 a       
    16 a          17 e+         18 e+         19 b          20 a       
    21 a          22 b          23 a          24 b          25 e+      
    26 e+         27 a          28 e+         29 e+         30 a       
    31 b          32 e+         33 e+         34 b          35 e+      
    36 e+         37 e+         38 e+         39 a          40 e+      
    41 e+         42 a          43 a          44 b          45 a       
    46 a          47 e+         48 e+         49 a          50 b       
 
 
   Symmetry analysis of molecular orbitals - initial beta
   ------------------------------------------------------
 
  Numbering of irreducible representations: 
 
     1 a           2 b           3 e+          4 e-      
 
  Orbital symmetries:
 
     1 a           2 a           3 a           4 e+          5 e+      
     6 b           7 a           8 e+          9 e+         10 a       
    11 a          12 a          13 e+         14 e+         15 a       
    16 a          17 e+         18 e+         19 b          20 a       
    21 a          22 b          23 a          24 b          25 e+      
    26 e+         27 a          28 e+         29 e+         30 a       
    31 b          32 e+         33 e+         34 b          35 e+      
    36 e+         37 e+         38 e+         39 a          40 e+      
    41 e+         42 a          43 a          44 b          45 a       
    46 a          47 e+         48 e+         49 a          50 b       
 
   Time after variat. SCF:      0.7
   Time prior to 1st pass:      0.7

 Integral file          = ./zno_g.aoints.0
 Record size in doubles =  65536        No. of integs per rec  =  43688
 Max. records in memory =     76        Max. records in file   =  98493
 No. of bits per label  =      8        No. of bits per value  =     64


 #quartets = 1.456D+05 #integrals = 2.244D+06 #direct =  0.0% #cached =100.0%


File balance: exchanges=     2  moved=     9  time=   0.1


 Grid_pts file          = ./zno_g.gridpts.0
 Record size in doubles =  12289        No. of grid_pts per rec  =   3070
 Max. records in memory =     81        Max. recs in file   =    525259

  Resetting Diis

           Memory utilization after 1st SCF pass: 
           Heap Space remaining (MW):        7.10             7103840
          Stack Space remaining (MW):       13.11            13105756

   convergence    iter        energy       DeltaE   RMS-Dens  Diis-err    time
 ---------------- ----- ----------------- --------- --------- ---------  ------
 d= 0,ls=0.0,diis     1  -2228.1103916345 -2.77D+03  1.27D-02  2.30D-01     2.0
                                                     6.63D-03  1.94D-01
 d= 0,ls=0.2,diis     2  -2227.4797995823  6.31D-01  2.01D-02  1.17D+00     2.7
                                                     1.83D-02  1.76D+00
 d= 0,ls=0.2,diis     3  -2218.1564688287  9.32D+00  8.37D-03  1.33D+01     3.3
                                                     6.02D-03  1.11D+01
 d= 0,ls=0.2,diis     4  -2222.0418512468 -3.89D+00  1.42D-02  5.69D+00     3.9
                                                     6.31D-03  7.09D+00
 d= 0,ls=0.2,diis     5  -2227.5985501222 -5.56D+00  4.37D-03  1.28D+00     4.6
                                                     1.88D-03  1.16D+00
 d= 0,ls=0.2,diis     6  -2228.1460612983 -5.48D-01  3.59D-03  4.54D-01     5.2
                                                     9.65D-04  2.55D-01
 d= 0,ls=0.2,diis     7  -2228.3738119420 -2.28D-01  2.55D-03  1.07D-01     5.9
                                                     7.43D-04  5.20D-02
 d= 0,ls=0.2,diis     8  -2228.4434278802 -6.96D-02  1.52D-03  1.26D-02     6.5
                                                     5.64D-04  1.81D-03
 d= 0,ls=0.2,diis     9  -2228.4626515120 -1.92D-02  9.80D-04  3.22D-03     7.1
                                                     4.40D-04  5.15D-04
 d= 0,ls=0.2,diis    10  -2228.4703996356 -7.75D-03  7.00D-04  9.94D-04     7.8
                                                     3.81D-04  2.52D-04
 d= 0,ls=0.2,diis    11  -2228.4742742626 -3.87D-03  5.85D-04  4.41D-04     8.4
                                                     4.11D-04  1.69D-04
 d= 0,ls=0.2,diis    12  -2228.4766907735 -2.42D-03  3.72D-04  1.95D-04     9.1
                                                     3.21D-04  1.14D-04
 d= 0,ls=0.2,diis    13  -2228.4778002870 -1.11D-03  2.58D-04  1.30D-04     9.7
                                                     2.75D-04  1.38D-04
 d= 0,ls=0.2,diis    14  -2228.4783448613 -5.45D-04  1.34D-04  1.42D-04    10.4
                                                     1.64D-04  2.06D-04
 d= 0,ls=0.2,diis    15  -2228.4786474226 -3.03D-04  9.60D-05  2.31D-05    11.0
                                                     1.93D-04  6.20D-05
 d= 0,ls=0.2,diis    16  -2228.4788520915 -2.05D-04  4.29D-05  3.04D-06    11.6
                                                     1.48D-04  2.42D-05
 d= 0,ls=0.2,diis    17  -2228.4789585946 -1.07D-04  3.80D-05  6.01D-06    12.3
                                                     1.30D-04  1.50D-05
 d= 0,ls=0.2,diis    18  -2228.4790289930 -7.04D-05  2.43D-05  3.53D-06    12.9
                                                     1.11D-04  1.48D-05
 d= 0,ls=0.2,diis    19  -2228.4790733197 -4.43D-05  1.96D-05  1.05D-05    13.6
                                                     1.02D-04  1.82D-05
 d= 0,ls=0.2,diis    20  -2228.4791051477 -3.18D-05  4.30D-06  1.48D-05    14.2
                                                     6.68D-05  1.83D-05
 d= 0,ls=0.2,diis    21  -2228.4791261788 -2.10D-05  1.60D-05  6.20D-06    14.9
                                                     7.58D-05  8.53D-06
 d= 0,ls=0.2,diis    22  -2228.4791372545 -1.11D-05  6.59D-06  1.13D-05    15.5
                                                     5.52D-05  1.25D-05
 d= 0,ls=0.2,diis    23  -2228.4791448728 -7.62D-06  1.37D-06  8.58D-06    16.2
                                                     3.52D-05  9.56D-06
 d= 0,ls=0.2,diis    24  -2228.4791499439 -5.07D-06  1.40D-06  3.74D-06    16.8
                                                     2.33D-05  4.64D-06
 d= 0,ls=0.2,diis    25  -2228.4791524157 -2.47D-06  1.49D-06  1.41D-06    17.5
                                                     1.50D-05  1.94D-06
 d= 0,ls=0.2,diis    26  -2228.4791533397 -9.24D-07  1.13D-06  7.70D-07    18.1
                                                     8.87D-06  1.04D-06
 d= 0,ls=0.2,diis    27  -2228.4791538544 -5.15D-07  5.04D-07  3.23D-07    18.7
                                                     6.37D-06  4.28D-07
 d= 0,ls=0.2,diis    28  -2228.4791540985 -2.44D-07  4.72D-07  1.38D-07    19.4
                                                     4.77D-06  1.97D-07
 d= 0,ls=0.2,diis    29  -2228.4791542634 -1.65D-07  1.92D-07  4.67D-08    20.0
                                                     3.24D-06  8.56D-08
 d= 0,ls=0.2,diis    30  -2228.4791543616 -9.82D-08  2.36D-07  1.52D-08    20.7
                                                     2.22D-06  4.77D-08
 d= 0,ls=0.2,diis    31  -2228.4791544014 -3.98D-08  1.19D-07  3.63D-08    21.3
                                                     1.63D-06  7.54D-08
 d= 0,ls=0.2,diis    32  -2228.4791544158 -1.44D-08  4.35D-07  6.94D-08    22.0
                                                     2.27D-06  1.23D-07
 d= 0,ls=0.2,diis    33  -2228.4791544376 -2.17D-08  3.64D-07  9.72D-08    22.6
                                                     9.21D-07  1.70D-07
 d= 0,ls=0.2,diis    34  -2228.4791544262  1.14D-08  1.41D-07  1.37D-07    23.3
                                                     6.95D-07  2.25D-07
 d= 0,ls=0.2,diis    35  -2228.4791544034  2.28D-08  3.53D-07  1.77D-07    23.9
                                                     1.50D-06  2.84D-07
 d= 0,ls=0.2,diis    36  -2228.4791543553  4.81D-08  4.82D-07  1.79D-07    24.6
                                                     3.59D-06  2.87D-07
 d= 0,ls=0.2,diis    37  -2228.4791542492  1.06D-07  4.07D-07  1.74D-07    25.2
                                                     1.57D-06  2.84D-07
 d= 0,ls=0.2,diis    38  -2228.4791542938 -4.46D-08  5.87D-07  1.17D-07    25.8
                                                     4.21D-06  2.04D-07
 d= 0,ls=0.2,diis    39  -2228.4791541765  1.17D-07  4.62D-07  1.62D-07    26.5
                                                     9.16D-07  2.49D-07
 d= 0,ls=0.2,diis    40  -2228.4791541944 -1.79D-08  5.48D-07  1.17D-07    27.1
                                                     2.58D-06  2.00D-07
 d= 0,ls=0.2,diis    41  -2228.4791541572  3.72D-08  5.03D-07  1.04D-07    27.8
                                                     2.33D-06  1.66D-07
 d= 0,ls=0.2,diis    42  -2228.4791541177  3.94D-08  6.44D-07  1.01D-07    28.4
                                                     1.44D-06  1.53D-07
 d= 0,ls=0.2,diis    43  -2228.4791541095  8.28D-09  5.71D-07  6.96D-08    29.1
                                                     8.85D-07  1.14D-07


         Total DFT energy =    -2228.479154108021
      One electron energy =    -4179.396242527590
           Coulomb energy =     1530.612906139525
    Exchange-Corr. energy =     -120.975835098534
 Nuclear repulsion energy =      541.280017378578

 Numeric. integr. density =       78.000000037533

     Total iterative time =     29.0s


 
                  Occupations of the irreducible representations
                  ----------------------------------------------
 
                     irrep           alpha         beta
                     --------     --------     --------
                     a                16.0         15.0
                     b                 6.0          7.0
                     e+               18.0         16.0
                     e-                0.0          0.0
 
 
                    DFT Final Alpha Molecular Orbital Analysis
                    ------------------------------------------
 
 Vector    1  Occ=1.000000D+00  E=-3.477035D+02  Symmetry=a
              MO Center= -3.4D-21, -7.8D-23, -4.7D-11, r^2= 9.8D-04
   Bfn.  Coefficient  Atom+Function         Bfn.  Coefficient  Atom+Function  
  ----- ------------  ---------------      ----- ------------  ---------------
     1      0.995303   1 Zn s         
 
 Vector    2  Occ=1.000000D+00  E=-4.245154D+01  Symmetry=a
              MO Center= -2.4D-16, -1.9D-17, -1.3D-07, r^2= 1.7D-02
   Bfn.  Coefficient  Atom+Function         Bfn.  Coefficient  Atom+Function  
  ----- ------------  ---------------      ----- ------------  ---------------
     2      1.046098   1 Zn s                 1     -0.341070   1 Zn s         
 
 Vector    3  Occ=1.000000D+00  E=-3.741036D+01  Symmetry=a
              MO Center= -2.1D-18, -1.4D-18,  1.2D-07, r^2= 1.4D-02
   Bfn.  Coefficient  Atom+Function         Bfn.  Coefficient  Atom+Function  
  ----- ------------  ---------------      ----- ------------  ---------------
     8      0.993243   1 Zn pz        
 
 Vector    4  Occ=1.000000D+00  E=-3.740397D+01  Symmetry=e+
              MO Center=  2.2D-16,  9.9D-17, -3.8D-09, r^2= 1.4D-02
   Bfn.  Coefficient  Atom+Function         Bfn.  Coefficient  Atom+Function  
  ----- ------------  ---------------      ----- ------------  ---------------
     6      0.901293   1 Zn px                7      0.417484   1 Zn py        
 
 Vector    5  Occ=1.000000D+00  E=-3.740397D+01  Symmetry=e+
              MO Center=  3.2D-17, -7.6D-17, -3.8D-09, r^2= 1.4D-02
   Bfn.  Coefficient  Atom+Function         Bfn.  Coefficient  Atom+Function  
  ----- ------------  ---------------      ----- ------------  ---------------
     7      0.901293   1 Zn py                6     -0.417484   1 Zn px        
 
 Vector    6  Occ=1.000000D+00  E=-1.944522D+01  Symmetry=a
              MO Center= -1.6D-19,  2.9D-18,  2.0D+00, r^2= 5.8D-01
   Bfn.  Coefficient  Atom+Function         Bfn.  Coefficient  Atom+Function  
  ----- ------------  ---------------      ----- ------------  ---------------
    88      0.972484   6 O  s               102      0.179666   7 O  s         
    89     -0.037967   6 O  s         
 
 Vector    7  Occ=1.000000D+00  E=-1.944515D+01  Symmetry=a
              MO Center=  9.0D-18,  1.1D-17, -2.0D+00, r^2= 5.8D-01
   Bfn.  Coefficient  Atom+Function         Bfn.  Coefficient  Atom+Function  
  ----- ------------  ---------------      ----- ------------  ---------------
   102      0.972490   7 O  s                88     -0.179699   6 O  s         
   103     -0.037934   7 O  s         
 
 Vector    8  Occ=1.000000D+00  E=-1.930332D+01  Symmetry=a
              MO Center=  8.7D-17, -2.2D-17, -2.8D-09, r^2= 4.0D+00
   Bfn.  Coefficient  Atom+Function         Bfn.  Coefficient  Atom+Function  
  ----- ------------  ---------------      ----- ------------  ---------------
    32      0.494720   2 O  s                46      0.494720   3 O  s         
    60      0.494720   4 O  s                74      0.494720   5 O  s         
 
 Vector    9  Occ=1.000000D+00  E=-1.930326D+01  Symmetry=e+
              MO Center=  2.1D-10, -4.0D-11, -2.5D-09, r^2= 4.0D+00
   Bfn.  Coefficient  Atom+Function         Bfn.  Coefficient  Atom+Function  
  ----- ------------  ---------------      ----- ------------  ---------------
    32      0.687814   2 O  s                46     -0.687814   3 O  s         
    60      0.128505   4 O  s                74     -0.128505   5 O  s         
    33     -0.025642   2 O  s                47      0.025642   3 O  s         
 
 Vector   10  Occ=1.000000D+00  E=-1.930326D+01  Symmetry=e+
              MO Center=  1.7D-12,  9.1D-12, -2.5D-09, r^2= 4.0D+00
   Bfn.  Coefficient  Atom+Function         Bfn.  Coefficient  Atom+Function  
  ----- ------------  ---------------      ----- ------------  ---------------
    60      0.687814   4 O  s                74     -0.687814   5 O  s         
    32     -0.128505   2 O  s                46      0.128505   3 O  s         
    61     -0.025642   4 O  s                75      0.025642   5 O  s         
 
 Vector   11  Occ=1.000000D+00  E=-1.930320D+01  Symmetry=b
              MO Center= -2.1D-10,  3.1D-11, -2.5D-09, r^2= 4.0D+00
   Bfn.  Coefficient  Atom+Function         Bfn.  Coefficient  Atom+Function  
  ----- ------------  ---------------      ----- ------------  ---------------
    32      0.494825   2 O  s                46      0.494825   3 O  s         
    60     -0.494825   4 O  s                74     -0.494825   5 O  s         
 
 Vector   12  Occ=1.000000D+00  E=-4.973693D+00  Symmetry=a
              MO Center=  2.1D-19, -8.4D-18, -1.9D-06, r^2= 1.5D-01
   Bfn.  Coefficient  Atom+Function         Bfn.  Coefficient  Atom+Function  
  ----- ------------  ---------------      ----- ------------  ---------------
     3      1.088588   1 Zn s                 2     -0.477567   1 Zn s         
     1      0.129233   1 Zn s         
 
 Vector   13  Occ=1.000000D+00  E=-3.358864D+00  Symmetry=a
              MO Center= -1.2D-16, -1.7D-16,  8.4D-07, r^2= 1.7D-01
   Bfn.  Coefficient  Atom+Function         Bfn.  Coefficient  Atom+Function  
  ----- ------------  ---------------      ----- ------------  ---------------
    11      1.074626   1 Zn pz                8     -0.409724   1 Zn pz        
 
 Vector   14  Occ=1.000000D+00  E=-3.344973D+00  Symmetry=e+
              MO Center=  7.7D-17, -1.1D-16, -3.9D-07, r^2= 1.7D-01
   Bfn.  Coefficient  Atom+Function         Bfn.  Coefficient  Atom+Function  
  ----- ------------  ---------------      ----- ------------  ---------------
     9      0.870722   1 Zn px               10     -0.629600   1 Zn py        
     6     -0.331906   1 Zn px                7      0.239994   1 Zn py        
 
 Vector   15  Occ=1.000000D+00  E=-3.344973D+00  Symmetry=e+
              MO Center=  2.2D-17, -2.3D-16, -3.9D-07, r^2= 1.7D-01
   Bfn.  Coefficient  Atom+Function         Bfn.  Coefficient  Atom+Function  
  ----- ------------  ---------------      ----- ------------  ---------------
    10      0.870722   1 Zn py                9      0.629600   1 Zn px        
     7     -0.331906   1 Zn py                6     -0.239994   1 Zn px        
 
 Vector   16  Occ=1.000000D+00  E=-1.115742D+00  Symmetry=a
              MO Center=  1.3D-16, -2.0D-17,  6.0D-02, r^2= 4.6D+00
   Bfn.  Coefficient  Atom+Function         Bfn.  Coefficient  Atom+Function  
  ----- ------------  ---------------      ----- ------------  ---------------
    89      0.486266   6 O  s               103      0.472186   7 O  s         
    90      0.288605   6 O  s               104      0.280302   7 O  s         
    88      0.228782   6 O  s               102      0.222161   7 O  s         
     4      0.049958   1 Zn s                 3     -0.037461   1 Zn s         
    17      0.033637   1 Zn d  0             93     -0.026016   6 O  pz        
 
 Vector   17  Occ=1.000000D+00  E=-1.113273D+00  Symmetry=a
              MO Center=  1.7D-15,  3.7D-17, -6.0D-02, r^2= 4.7D+00
   Bfn.  Coefficient  Atom+Function         Bfn.  Coefficient  Atom+Function  
  ----- ------------  ---------------      ----- ------------  ---------------
   103     -0.489631   7 O  s                89      0.475655   6 O  s         
   104     -0.288572   7 O  s                90      0.280277   6 O  s         
   102     -0.230234   7 O  s                88      0.223658   6 O  s         
    11     -0.031017   1 Zn pz               14      0.029576   1 Zn pz        
 
 Vector   18  Occ=1.000000D+00  E=-9.442194D-01  Symmetry=a
              MO Center= -5.5D-14, -3.5D-14, -2.2D-07, r^2= 4.0D+00
   Bfn.  Coefficient  Atom+Function         Bfn.  Coefficient  Atom+Function  
  ----- ------------  ---------------      ----- ------------  ---------------
    33      0.303340   2 O  s                47      0.303340   3 O  s         
    61      0.303340   4 O  s                75      0.303340   5 O  s         
    34      0.205466   2 O  s                48      0.205466   3 O  s         
    62      0.205466   4 O  s                76      0.205466   5 O  s         
    32      0.148591   2 O  s                46      0.148591   3 O  s         
 
 Vector   19  Occ=1.000000D+00  E=-9.267881D-01  Symmetry=e+
              MO Center=  4.5D-13, -9.2D-15,  3.6D-06, r^2= 4.2D+00
   Bfn.  Coefficient  Atom+Function         Bfn.  Coefficient  Atom+Function  
  ----- ------------  ---------------      ----- ------------  ---------------
    33      0.441511   2 O  s                47     -0.441511   3 O  s         
    34      0.307346   2 O  s                48     -0.307346   3 O  s         
    32      0.216676   2 O  s                46     -0.216676   3 O  s         
    12      0.067774   1 Zn px                9     -0.051022   1 Zn px        
    35     -0.027773   2 O  px               49     -0.027773   3 O  px        
 
 Vector   20  Occ=1.000000D+00  E=-9.267881D-01  Symmetry=e+
              MO Center= -1.7D-15, -1.4D-14,  3.6D-06, r^2= 4.2D+00
   Bfn.  Coefficient  Atom+Function         Bfn.  Coefficient  Atom+Function  
  ----- ------------  ---------------      ----- ------------  ---------------
    61      0.441511   4 O  s                75     -0.441511   5 O  s         
    62      0.307346   4 O  s                76     -0.307346   5 O  s         
    60      0.216676   4 O  s                74     -0.216676   5 O  s         
    13      0.067774   1 Zn py               10     -0.051022   1 Zn py        
    64     -0.027773   4 O  py               78     -0.027773   5 O  py        
 
 Vector   21  Occ=1.000000D+00  E=-9.208136D-01  Symmetry=b
              MO Center= -3.9D-13,  6.4D-14,  2.4D-06, r^2= 4.2D+00
   Bfn.  Coefficient  Atom+Function         Bfn.  Coefficient  Atom+Function  
  ----- ------------  ---------------      ----- ------------  ---------------
    33      0.311471   2 O  s                47      0.311471   3 O  s         
    61     -0.311471   4 O  s                75     -0.311471   5 O  s         
    34      0.229614   2 O  s                48      0.229614   3 O  s         
    62     -0.229614   4 O  s                76     -0.229614   5 O  s         
    32      0.153329   2 O  s                46      0.153329   3 O  s         
 
 Vector   22  Occ=1.000000D+00  E=-6.291205D-01  Symmetry=a
              MO Center=  4.8D-17, -2.6D-15, -3.4D-04, r^2= 1.4D+00
   Bfn.  Coefficient  Atom+Function         Bfn.  Coefficient  Atom+Function  
  ----- ------------  ---------------      ----- ------------  ---------------
    17      0.734657   1 Zn d  0             22      0.263892   1 Zn d  0      
    93     -0.204684   6 O  pz              107      0.204860   7 O  pz        
    96     -0.124733   6 O  pz              110      0.124828   7 O  pz        
     4      0.078334   1 Zn s                89     -0.062561   6 O  s         
   103     -0.062577   7 O  s                 3     -0.041744   1 Zn s         
 
 Vector   23  Occ=1.000000D+00  E=-6.074278D-01  Symmetry=e+
              MO Center= -3.1D-16, -2.1D-15,  3.0D-04, r^2= 7.0D-01
   Bfn.  Coefficient  Atom+Function         Bfn.  Coefficient  Atom+Function  
  ----- ------------  ---------------      ----- ------------  ---------------
    18      0.617264   1 Zn d  1             16     -0.501816   1 Zn d -1      
    23      0.226398   1 Zn d  1             21     -0.184054   1 Zn d -1      
    91     -0.097542   6 O  px              105      0.097337   7 O  px        
    92     -0.079298   6 O  py              106      0.079132   7 O  py        
    94     -0.069150   6 O  px              108      0.069033   7 O  px        
 
 Vector   24  Occ=1.000000D+00  E=-6.074278D-01  Symmetry=e+
              MO Center= -3.8D-16, -2.6D-15,  3.0D-04, r^2= 7.0D-01
   Bfn.  Coefficient  Atom+Function         Bfn.  Coefficient  Atom+Function  
  ----- ------------  ---------------      ----- ------------  ---------------
    16      0.617264   1 Zn d -1             18      0.501816   1 Zn d  1      
    21      0.226398   1 Zn d -1             23      0.184054   1 Zn d  1      
    92      0.097542   6 O  py              106     -0.097337   7 O  py        
    91     -0.079298   6 O  px              105      0.079132   7 O  px        
    95      0.069150   6 O  py              109     -0.069033   7 O  py        
 
 Vector   25  Occ=1.000000D+00  E=-6.006156D-01  Symmetry=b
              MO Center= -3.1D-16, -2.0D-15, -5.5D-08, r^2= 3.3D-01
   Bfn.  Coefficient  Atom+Function         Bfn.  Coefficient  Atom+Function  
  ----- ------------  ---------------      ----- ------------  ---------------
    15      0.835571   1 Zn d -2             20      0.303207   1 Zn d -2      
    39      0.032624   2 O  py               53     -0.032624   3 O  py        
    66      0.032624   4 O  px               80     -0.032624   5 O  px        
 
 Vector   26  Occ=1.000000D+00  E=-5.805795D-01  Symmetry=b
              MO Center=  2.2D-15, -1.8D-14, -4.0D-07, r^2= 9.1D-01
   Bfn.  Coefficient  Atom+Function         Bfn.  Coefficient  Atom+Function  
  ----- ------------  ---------------      ----- ------------  ---------------
    19      0.784305   1 Zn d  2             24      0.289327   1 Zn d  2      
    35     -0.084947   2 O  px               49      0.084947   3 O  px        
    64      0.084947   4 O  py               78     -0.084947   5 O  py        
    33     -0.071143   2 O  s                47     -0.071143   3 O  s         
    61      0.071143   4 O  s                75      0.071143   5 O  s         
 
 Vector   27  Occ=1.000000D+00  E=-5.381523D-01  Symmetry=a
              MO Center=  4.3D-15,  2.3D-16, -7.5D-03, r^2= 4.9D+00
   Bfn.  Coefficient  Atom+Function         Bfn.  Coefficient  Atom+Function  
  ----- ------------  ---------------      ----- ------------  ---------------
    93      0.474724   6 O  pz              107      0.476531   7 O  pz        
    96      0.276999   6 O  pz              110      0.278012   7 O  pz        
    14     -0.129811   1 Zn pz               11      0.079319   1 Zn pz        
    90      0.048615   6 O  s               104     -0.048721   7 O  s         
    37     -0.045183   2 O  pz               51     -0.045183   3 O  pz        
 
 Vector   28  Occ=1.000000D+00  E=-5.358297D-01  Symmetry=e+
              MO Center= -1.3D-16, -3.7D-16,  4.1D-02, r^2= 4.9D+00
   Bfn.  Coefficient  Atom+Function         Bfn.  Coefficient  Atom+Function  
  ----- ------------  ---------------      ----- ------------  ---------------
    92      0.475122   6 O  py              106      0.465742   7 O  py        
    95      0.281597   6 O  py              109      0.276068   7 O  py        
    91     -0.173490   6 O  px              105     -0.170065   7 O  px        
    94     -0.102824   6 O  px              108     -0.100805   7 O  px        
    13      0.052663   1 Zn py               61     -0.028379   4 O  s         
 
 Vector   29  Occ=1.000000D+00  E=-5.358297D-01  Symmetry=e+
              MO Center= -9.2D-17,  5.2D-16,  4.1D-02, r^2= 4.9D+00
   Bfn.  Coefficient  Atom+Function         Bfn.  Coefficient  Atom+Function  
  ----- ------------  ---------------      ----- ------------  ---------------
    91      0.475122   6 O  px              105      0.465742   7 O  px        
    94      0.281597   6 O  px              108      0.276068   7 O  px        
    92      0.173490   6 O  py              106      0.170065   7 O  py        
    95      0.102824   6 O  py              109      0.100805   7 O  py        
    12      0.052663   1 Zn px               33     -0.028379   2 O  s         
 
 Vector   30  Occ=1.000000D+00  E=-5.294036D-01  Symmetry=e+
              MO Center= -1.1D-16, -3.9D-16, -4.1D-02, r^2= 4.5D+00
   Bfn.  Coefficient  Atom+Function         Bfn.  Coefficient  Atom+Function  
  ----- ------------  ---------------      ----- ------------  ---------------
   106     -0.486788   7 O  py               92      0.476533   6 O  py        
   109     -0.288787   7 O  py               95      0.282683   6 O  py        
    16     -0.261079   1 Zn d -1             21     -0.083018   1 Zn d -1      
   105     -0.058890   7 O  px               91      0.057649   6 O  px        
   108     -0.034936   7 O  px               94      0.034198   6 O  px        
 
 Vector   31  Occ=1.000000D+00  E=-5.294036D-01  Symmetry=e+
              MO Center= -4.1D-15,  4.0D-16, -4.1D-02, r^2= 4.5D+00
   Bfn.  Coefficient  Atom+Function         Bfn.  Coefficient  Atom+Function  
  ----- ------------  ---------------      ----- ------------  ---------------
   105     -0.486788   7 O  px               91      0.476533   6 O  px        
   108     -0.288787   7 O  px               94      0.282683   6 O  px        
    18      0.261079   1 Zn d  1             23      0.083018   1 Zn d  1      
   106      0.058890   7 O  py               92     -0.057649   6 O  py        
   109      0.034936   7 O  py               95     -0.034198   6 O  py        
 
 Vector   32  Occ=1.000000D+00  E=-5.263539D-01  Symmetry=a
              MO Center= -1.2D-15, -4.1D-15,  7.6D-03, r^2= 4.1D+00
   Bfn.  Coefficient  Atom+Function         Bfn.  Coefficient  Atom+Function  
  ----- ------------  ---------------      ----- ------------  ---------------
    93      0.395215   6 O  pz              107     -0.393057   7 O  pz        
    17      0.357169   1 Zn d  0              4     -0.316753   1 Zn s         
    96      0.227670   6 O  pz              110     -0.226391   7 O  pz        
     3      0.155433   1 Zn s                22      0.115642   1 Zn d  0      
    35      0.093322   2 O  px               49     -0.093322   3 O  px        
 
 Vector   33  Occ=1.000000D+00  E=-3.968225D-01  Symmetry=a
              MO Center= -6.4D-14,  1.4D-14,  3.4D-05, r^2= 4.5D+00
   Bfn.  Coefficient  Atom+Function         Bfn.  Coefficient  Atom+Function  
  ----- ------------  ---------------      ----- ------------  ---------------
    37      0.324782   2 O  pz               51      0.324782   3 O  pz        
    65      0.324782   4 O  pz               79      0.324782   5 O  pz        
    40      0.224065   2 O  pz               54      0.224065   3 O  pz        
    68      0.224065   4 O  pz               82      0.224065   5 O  pz        
    93      0.109793   6 O  pz              107      0.109760   7 O  pz        
 
 Vector   34  Occ=1.000000D+00  E=-3.849105D-01  Symmetry=e+
              MO Center= -1.0D-13,  2.4D-13, -2.0D-05, r^2= 4.5D+00
   Bfn.  Coefficient  Atom+Function         Bfn.  Coefficient  Atom+Function  
  ----- ------------  ---------------      ----- ------------  ---------------
    65      0.422561   4 O  pz               79     -0.422561   5 O  pz        
    68      0.296408   4 O  pz               82     -0.296408   5 O  pz        
    37      0.210637   2 O  pz               51     -0.210637   3 O  pz        
    40      0.147753   2 O  pz               54     -0.147753   3 O  pz        
    16     -0.114144   1 Zn d -1             92     -0.060021   6 O  py        
 
 Vector   35  Occ=1.000000D+00  E=-3.849105D-01  Symmetry=e+
              MO Center=  6.0D-13,  2.4D-13, -2.0D-05, r^2= 4.5D+00
   Bfn.  Coefficient  Atom+Function         Bfn.  Coefficient  Atom+Function  
  ----- ------------  ---------------      ----- ------------  ---------------
    37      0.422561   2 O  pz               51     -0.422561   3 O  pz        
    40      0.296408   2 O  pz               54     -0.296408   3 O  pz        
    65     -0.210637   4 O  pz               79      0.210637   5 O  pz        
    68     -0.147753   4 O  pz               82      0.147753   5 O  pz        
    18      0.114144   1 Zn d  1             91     -0.060021   6 O  px        
 
 Vector   36  Occ=1.000000D+00  E=-3.840735D-01  Symmetry=a
              MO Center= -6.5D-15,  3.3D-14,  1.5D-04, r^2= 4.2D+00
   Bfn.  Coefficient  Atom+Function         Bfn.  Coefficient  Atom+Function  
  ----- ------------  ---------------      ----- ------------  ---------------
     4      0.469808   1 Zn s                35     -0.253966   2 O  px        
    49      0.253966   3 O  px               64     -0.253966   4 O  py        
    78      0.253966   5 O  py               17      0.247866   1 Zn d  0      
    93      0.217338   6 O  pz              107     -0.217246   7 O  pz        
     3     -0.206610   1 Zn s                38     -0.166032   2 O  px        
 
 Vector   37  Occ=1.000000D+00  E=-3.837454D-01  Symmetry=b
              MO Center= -4.3D-13, -4.9D-13,  2.6D-07, r^2= 4.5D+00
   Bfn.  Coefficient  Atom+Function         Bfn.  Coefficient  Atom+Function  
  ----- ------------  ---------------      ----- ------------  ---------------
    37      0.339937   2 O  pz               51      0.339937   3 O  pz        
    65     -0.339937   4 O  pz               79     -0.339937   5 O  pz        
    40      0.236715   2 O  pz               54      0.236715   3 O  pz        
    68     -0.236715   4 O  pz               82     -0.236715   5 O  pz        
 
 Vector   38  Occ=1.000000D+00  E=-3.581873D-01  Symmetry=e+
              MO Center=  1.4D-14, -9.3D-15, -1.7D-05, r^2= 4.5D+00
   Bfn.  Coefficient  Atom+Function         Bfn.  Coefficient  Atom+Function  
  ----- ------------  ---------------      ----- ------------  ---------------
    64      0.393260   4 O  py               78      0.393260   5 O  py        
    67      0.262138   4 O  py               81      0.262138   5 O  py        
    13     -0.246957   1 Zn py               35     -0.127478   2 O  px        
    49     -0.127478   3 O  px               10      0.113546   1 Zn py        
    62      0.098095   4 O  s                76     -0.098095   5 O  s         
 
 Vector   39  Occ=1.000000D+00  E=-3.581873D-01  Symmetry=e+
              MO Center= -9.3D-15,  1.0D-15, -1.7D-05, r^2= 4.5D+00
   Bfn.  Coefficient  Atom+Function         Bfn.  Coefficient  Atom+Function  
  ----- ------------  ---------------      ----- ------------  ---------------
    35      0.393260   2 O  px               49      0.393260   3 O  px        
    38      0.262138   2 O  px               52      0.262138   3 O  px        
    12     -0.246957   1 Zn px               64      0.127478   4 O  py        
    78      0.127478   5 O  py                9      0.113546   1 Zn px        
    34      0.098095   2 O  s                48     -0.098095   3 O  s         
 
 Vector   40  Occ=1.000000D+00  E=-2.722354D-01  Symmetry=b
              MO Center=  8.1D-15,  1.0D-14,  1.3D-07, r^2= 4.5D+00
   Bfn.  Coefficient  Atom+Function         Bfn.  Coefficient  Atom+Function  
  ----- ------------  ---------------      ----- ------------  ---------------
    36      0.292717   2 O  py               50     -0.292717   3 O  py        
    63      0.292717   4 O  px               77     -0.292717   5 O  px        
    39      0.264301   2 O  py               53     -0.264301   3 O  py        
    66      0.264301   4 O  px               80     -0.264301   5 O  px        
    15     -0.154863   1 Zn d -2      
 
 Vector   41  Occ=0.000000D+00  E=-2.404125D-01  Symmetry=b
              MO Center= -1.2D-15,  2.8D-15,  4.1D-07, r^2= 4.2D+00
   Bfn.  Coefficient  Atom+Function         Bfn.  Coefficient  Atom+Function  
  ----- ------------  ---------------      ----- ------------  ---------------
    19      0.329018   1 Zn d  2             35      0.323215   2 O  px        
    49     -0.323215   3 O  px               64     -0.323215   4 O  py        
    78      0.323215   5 O  py               38      0.243850   2 O  px        
    52     -0.243850   3 O  px               67     -0.243850   4 O  py        
    81      0.243850   5 O  py               24      0.080695   1 Zn d  2      
 
 Vector   42  Occ=0.000000D+00  E=-2.039934D-01  Symmetry=e+
              MO Center= -9.3D-16, -3.4D-15,  7.8D-08, r^2= 4.6D+00
   Bfn.  Coefficient  Atom+Function         Bfn.  Coefficient  Atom+Function  
  ----- ------------  ---------------      ----- ------------  ---------------
    63      0.363290   4 O  px               77      0.363290   5 O  px        
    66      0.300926   4 O  px               80      0.300926   5 O  px        
    36     -0.225218   2 O  py               50     -0.225218   3 O  py        
    39     -0.186557   2 O  py               53     -0.186557   3 O  py        
    35      0.114239   2 O  px               49      0.114239   3 O  px        
 
 Vector   43  Occ=0.000000D+00  E=-2.039934D-01  Symmetry=e+
              MO Center= -2.9D-15, -1.3D-14,  7.8D-08, r^2= 4.6D+00
   Bfn.  Coefficient  Atom+Function         Bfn.  Coefficient  Atom+Function  
  ----- ------------  ---------------      ----- ------------  ---------------
    36      0.363290   2 O  py               50      0.363290   3 O  py        
    39      0.300926   2 O  py               53      0.300926   3 O  py        
    63      0.225218   4 O  px               77      0.225218   5 O  px        
    66      0.186557   4 O  px               80      0.186557   5 O  px        
    64      0.114239   4 O  py               78      0.114239   5 O  py        
 
 Vector   44  Occ=0.000000D+00  E=-1.722543D-01  Symmetry=a
              MO Center= -1.8D-15,  4.0D-15,  1.2D-07, r^2= 4.6D+00
   Bfn.  Coefficient  Atom+Function         Bfn.  Coefficient  Atom+Function  
  ----- ------------  ---------------      ----- ------------  ---------------
    36      0.330695   2 O  py               50     -0.330695   3 O  py        
    63     -0.330695   4 O  px               77      0.330695   5 O  px        
    39      0.258634   2 O  py               53     -0.258634   3 O  py        
    66     -0.258634   4 O  px               80      0.258634   5 O  px        
 
 Vector   45  Occ=0.000000D+00  E= 4.604273D-02  Symmetry=a
              MO Center=  1.7D-15,  8.9D-16,  7.2D-05, r^2= 7.0D+00
   Bfn.  Coefficient  Atom+Function         Bfn.  Coefficient  Atom+Function  
  ----- ------------  ---------------      ----- ------------  ---------------
     5      1.550546   1 Zn s                34     -0.305450   2 O  s         
    48     -0.305450   3 O  s                62     -0.305450   4 O  s         
    76     -0.305450   5 O  s                90     -0.234941   6 O  s         
   104     -0.234959   7 O  s                 3     -0.221122   1 Zn s         
    89     -0.142052   6 O  s               103     -0.142008   7 O  s         
 
 Vector   46  Occ=0.000000D+00  E= 1.375427D-01  Symmetry=a
              MO Center=  1.8D-15, -2.3D-15,  1.7D-07, r^2= 5.1D+00
   Bfn.  Coefficient  Atom+Function         Bfn.  Coefficient  Atom+Function  
  ----- ------------  ---------------      ----- ------------  ---------------
     4      2.228184   1 Zn s                 5     -1.548013   1 Zn s         
     3     -0.522016   1 Zn s                38      0.207856   2 O  px        
    52     -0.207856   3 O  px               67      0.207856   4 O  py        
    81     -0.207856   5 O  py               35      0.202906   2 O  px        
    49     -0.202906   3 O  px               64      0.202906   4 O  py        
 
 Vector   47  Occ=0.000000D+00  E= 2.029496D-01  Symmetry=a
              MO Center=  2.1D-16, -2.0D-15, -3.6D-05, r^2= 2.5D+00
   Bfn.  Coefficient  Atom+Function         Bfn.  Coefficient  Atom+Function  
  ----- ------------  ---------------      ----- ------------  ---------------
    14      1.397718   1 Zn pz               11     -0.312198   1 Zn pz        
    96      0.272971   6 O  pz              110      0.272963   7 O  pz        
    89     -0.241217   6 O  s               103      0.241210   7 O  s         
    90     -0.210635   6 O  s               104      0.210700   7 O  s         
    93      0.194601   6 O  pz              107      0.194601   7 O  pz        
 
 Vector   48  Occ=0.000000D+00  E= 2.765291D-01  Symmetry=e+
              MO Center= -9.7D-15, -1.5D-15,  2.6D-05, r^2= 2.7D+00
   Bfn.  Coefficient  Atom+Function         Bfn.  Coefficient  Atom+Function  
  ----- ------------  ---------------      ----- ------------  ---------------
    12      1.544495   1 Zn px               38      0.391324   2 O  px        
    52      0.391324   3 O  px               34     -0.351784   2 O  s         
    48      0.351784   3 O  s                 9     -0.305186   1 Zn px        
    33     -0.234739   2 O  s                47      0.234739   3 O  s         
    35      0.219196   2 O  px               49      0.219196   3 O  px        
 
 Vector   49  Occ=0.000000D+00  E= 2.765291D-01  Symmetry=e+
              MO Center=  4.2D-16,  1.1D-14,  2.6D-05, r^2= 2.7D+00
   Bfn.  Coefficient  Atom+Function         Bfn.  Coefficient  Atom+Function  
  ----- ------------  ---------------      ----- ------------  ---------------
    13      1.544495   1 Zn py               67      0.391324   4 O  py        
    81      0.391324   5 O  py               62     -0.351784   4 O  s         
    76      0.351784   5 O  s                10     -0.305186   1 Zn py        
    61     -0.234739   4 O  s                75      0.234739   5 O  s         
    64      0.219196   4 O  py               78      0.219196   5 O  py        
 
 Vector   50  Occ=0.000000D+00  E= 6.772788D-01  Symmetry=e+
              MO Center= -2.8D-16, -6.1D-15,  6.5D-04, r^2= 4.8D+00
   Bfn.  Coefficient  Atom+Function         Bfn.  Coefficient  Atom+Function  
  ----- ------------  ---------------      ----- ------------  ---------------
    95     -0.512516   6 O  py              109      0.512163   7 O  py        
    92      0.469678   6 O  py              106     -0.469428   7 O  py        
    65      0.367762   4 O  pz               79     -0.367762   5 O  pz        
    68     -0.341264   4 O  pz               82      0.341264   5 O  pz        
    16      0.189376   1 Zn d -1             21     -0.165872   1 Zn d -1      
 
 Vector   51  Occ=0.000000D+00  E= 6.772788D-01  Symmetry=e+
              MO Center=  8.9D-16, -9.9D-16,  6.5D-04, r^2= 4.8D+00
   Bfn.  Coefficient  Atom+Function         Bfn.  Coefficient  Atom+Function  
  ----- ------------  ---------------      ----- ------------  ---------------
    94     -0.512516   6 O  px              108      0.512163   7 O  px        
    91      0.469678   6 O  px              105     -0.469428   7 O  px        
    37      0.367762   2 O  pz               51     -0.367762   3 O  pz        
    40     -0.341264   2 O  pz               54      0.341264   3 O  pz        
    18     -0.189376   1 Zn d  1             23      0.165872   1 Zn d  1      
 
 Vector   52  Occ=0.000000D+00  E= 7.549438D-01  Symmetry=a
              MO Center=  1.8D-16, -1.9D-16,  1.7D-03, r^2= 7.7D+00
   Bfn.  Coefficient  Atom+Function         Bfn.  Coefficient  Atom+Function  
  ----- ------------  ---------------      ----- ------------  ---------------
    90     -0.928109   6 O  s               104      0.927199   7 O  s         
    89      0.854392   6 O  s               103     -0.853541   7 O  s         
    93      0.437465   6 O  pz               96     -0.438421   6 O  pz        
   107      0.437308   7 O  pz              110     -0.438281   7 O  pz        
    14      0.229092   1 Zn pz               88      0.160664   6 O  s         
 
 Vector   53  Occ=0.000000D+00  E= 7.679396D-01  Symmetry=a
              MO Center= -1.9D-16,  2.2D-15, -1.9D-03, r^2= 7.4D+00
   Bfn.  Coefficient  Atom+Function         Bfn.  Coefficient  Atom+Function  
  ----- ------------  ---------------      ----- ------------  ---------------
    90     -0.935595   6 O  s               104     -0.936246   7 O  s         
    89      0.901841   6 O  s               103      0.902489   7 O  s         
    96     -0.344154   6 O  pz              110      0.344641   7 O  pz        
    33     -0.314748   2 O  s                47     -0.314748   3 O  s         
    61     -0.314748   4 O  s                75     -0.314748   5 O  s         
 
 Vector   54  Occ=0.000000D+00  E= 7.803378D-01  Symmetry=b
              MO Center=  3.2D-16, -1.5D-14, -1.4D-08, r^2= 4.3D+00
   Bfn.  Coefficient  Atom+Function         Bfn.  Coefficient  Atom+Function  
  ----- ------------  ---------------      ----- ------------  ---------------
    36      0.466333   2 O  py               50     -0.466333   3 O  py        
    63      0.466333   4 O  px               77     -0.466333   5 O  px        
    39     -0.414104   2 O  py               53      0.414104   3 O  py        
    66     -0.414104   4 O  px               80      0.414104   5 O  px        
    15      0.223300   1 Zn d -2             20     -0.215087   1 Zn d -2      
 
 Vector   55  Occ=0.000000D+00  E= 8.402251D-01  Symmetry=e+
              MO Center=  4.8D-16, -1.6D-14, -1.9D-04, r^2= 5.7D+00
   Bfn.  Coefficient  Atom+Function         Bfn.  Coefficient  Atom+Function  
  ----- ------------  ---------------      ----- ------------  ---------------
    95      0.784686   6 O  py              109      0.784714   7 O  py        
    92     -0.612458   6 O  py              106     -0.612534   7 O  py        
    13     -0.566052   1 Zn py               62      0.259306   4 O  s         
    76     -0.259306   5 O  s                94      0.172811   6 O  px        
   108      0.172818   7 O  px               91     -0.134882   6 O  px        
 
 Vector   56  Occ=0.000000D+00  E= 8.402251D-01  Symmetry=e+
              MO Center=  1.9D-15,  9.4D-16, -1.9D-04, r^2= 5.7D+00
   Bfn.  Coefficient  Atom+Function         Bfn.  Coefficient  Atom+Function  
  ----- ------------  ---------------      ----- ------------  ---------------
    94      0.784686   6 O  px              108      0.784714   7 O  px        
    91     -0.612458   6 O  px              105     -0.612534   7 O  px        
    12     -0.566052   1 Zn px               34      0.259306   2 O  s         
    48     -0.259306   3 O  s                95     -0.172811   6 O  py        
   109     -0.172818   7 O  py               92      0.134882   6 O  py        
 
 Vector   57  Occ=0.000000D+00  E= 8.602388D-01  Symmetry=b
              MO Center=  4.7D-14, -2.4D-14,  4.5D-05, r^2= 6.9D+00
   Bfn.  Coefficient  Atom+Function         Bfn.  Coefficient  Atom+Function  
  ----- ------------  ---------------      ----- ------------  ---------------
    33      0.713951   2 O  s                47      0.713951   3 O  s         
    61     -0.713951   4 O  s                75     -0.713951   5 O  s         
    34     -0.695590   2 O  s                48     -0.695590   3 O  s         
    62      0.695590   4 O  s                76      0.695590   5 O  s         
    38     -0.252396   2 O  px               52      0.252396   3 O  px        
 
 Vector   58  Occ=0.000000D+00  E= 8.792645D-01  Symmetry=e+
              MO Center= -5.6D-14,  4.2D-14,  3.0D-05, r^2= 7.1D+00
   Bfn.  Coefficient  Atom+Function         Bfn.  Coefficient  Atom+Function  
  ----- ------------  ---------------      ----- ------------  ---------------
    34     -0.655132   2 O  s                48      0.655132   3 O  s         
    62     -0.612136   4 O  s                76      0.612136   5 O  s         
    33      0.608010   2 O  s                47     -0.608010   3 O  s         
    61      0.568100   4 O  s                75     -0.568100   5 O  s         
    35      0.344799   2 O  px               49      0.344799   3 O  px        
 
 Vector   59  Occ=0.000000D+00  E= 8.792645D-01  Symmetry=e+
              MO Center=  1.0D-14, -1.7D-14,  3.0D-05, r^2= 7.1D+00
   Bfn.  Coefficient  Atom+Function         Bfn.  Coefficient  Atom+Function  
  ----- ------------  ---------------      ----- ------------  ---------------
    62      0.655132   4 O  s                76     -0.655132   5 O  s         
    34     -0.612136   2 O  s                48      0.612136   3 O  s         
    61     -0.608010   4 O  s                75      0.608010   5 O  s         
    33      0.568100   2 O  s                47     -0.568100   3 O  s         
    64     -0.344799   4 O  py               78     -0.344799   5 O  py        
 
 Vector   60  Occ=0.000000D+00  E= 9.262069D-01  Symmetry=b
              MO Center=  7.1D-18,  7.6D-15, -3.5D-05, r^2= 5.2D+00
   Bfn.  Coefficient  Atom+Function         Bfn.  Coefficient  Atom+Function  
  ----- ------------  ---------------      ----- ------------  ---------------
    40      0.543183   2 O  pz               54      0.543183   3 O  pz        
    68     -0.543183   4 O  pz               82     -0.543183   5 O  pz        
    37     -0.471434   2 O  pz               51     -0.471434   3 O  pz        
    65      0.471434   4 O  pz               79      0.471434   5 O  pz        
 
 Vector   61  Occ=0.000000D+00  E= 9.544237D-01  Symmetry=a
              MO Center= -4.5D-15, -8.6D-15, -2.9D-06, r^2= 5.5D+00
   Bfn.  Coefficient  Atom+Function         Bfn.  Coefficient  Atom+Function  
  ----- ------------  ---------------      ----- ------------  ---------------
    14      0.889367   1 Zn pz               40     -0.610703   2 O  pz        
    54     -0.610703   3 O  pz               68     -0.610703   4 O  pz        
    82     -0.610703   5 O  pz               37      0.456438   2 O  pz        
    51      0.456438   3 O  pz               65      0.456438   4 O  pz        
    79      0.456438   5 O  pz               90     -0.293314   6 O  s         
 
 Vector   62  Occ=0.000000D+00  E= 9.618603D-01  Symmetry=a
              MO Center= -2.7D-15,  4.0D-15,  1.9D-04, r^2= 4.4D+00
   Bfn.  Coefficient  Atom+Function         Bfn.  Coefficient  Atom+Function  
  ----- ------------  ---------------      ----- ------------  ---------------
     4      0.895339   1 Zn s                96      0.733595   6 O  pz        
   110     -0.733496   7 O  pz               93     -0.542260   6 O  pz        
   107      0.542168   7 O  pz                5     -0.437361   1 Zn s         
    33     -0.319841   2 O  s                47     -0.319841   3 O  s         
    61     -0.319841   4 O  s                75     -0.319841   5 O  s         
 
 Vector   63  Occ=0.000000D+00  E= 9.982301D-01  Symmetry=e+
              MO Center=  1.6D-15,  3.0D-14,  3.2D-04, r^2= 5.4D+00
   Bfn.  Coefficient  Atom+Function         Bfn.  Coefficient  Atom+Function  
  ----- ------------  ---------------      ----- ------------  ---------------
    66     -0.793595   4 O  px               80     -0.793595   5 O  px        
    12      0.748683   1 Zn px               63      0.663328   4 O  px        
    77      0.663328   5 O  px               38      0.259328   2 O  px        
    52      0.259328   3 O  px               34     -0.246187   2 O  s         
    48      0.246187   3 O  s                94     -0.146875   6 O  px        
 
 Vector   64  Occ=0.000000D+00  E= 9.982301D-01  Symmetry=e+
              MO Center=  5.9D-15, -8.3D-15,  3.2D-04, r^2= 5.4D+00
   Bfn.  Coefficient  Atom+Function         Bfn.  Coefficient  Atom+Function  
  ----- ------------  ---------------      ----- ------------  ---------------
    39     -0.793595   2 O  py               53     -0.793595   3 O  py        
    13      0.748683   1 Zn py               36      0.663328   2 O  py        
    50      0.663328   3 O  py               67      0.259328   4 O  py        
    81      0.259328   5 O  py               62     -0.246187   4 O  s         
    76      0.246187   5 O  s                95     -0.146875   6 O  py        
 
 Vector   65  Occ=0.000000D+00  E= 1.003001D+00  Symmetry=e+
              MO Center= -3.6D-15,  1.5D-15, -8.2D-04, r^2= 5.6D+00
   Bfn.  Coefficient  Atom+Function         Bfn.  Coefficient  Atom+Function  
  ----- ------------  ---------------      ----- ------------  ---------------
    40      0.590577   2 O  pz               54     -0.590577   3 O  pz        
    94     -0.507065   6 O  px              108      0.507564   7 O  px        
    37     -0.491332   2 O  pz               51      0.491332   3 O  pz        
    91      0.382516   6 O  px              105     -0.382853   7 O  px        
    68     -0.209388   4 O  pz               82      0.209388   5 O  pz        
 
 Vector   66  Occ=0.000000D+00  E= 1.003001D+00  Symmetry=e+
              MO Center=  6.2D-15,  2.8D-14, -8.2D-04, r^2= 5.6D+00
   Bfn.  Coefficient  Atom+Function         Bfn.  Coefficient  Atom+Function  
  ----- ------------  ---------------      ----- ------------  ---------------
    68      0.590577   4 O  pz               82     -0.590577   5 O  pz        
    95     -0.507065   6 O  py              109      0.507564   7 O  py        
    65     -0.491332   4 O  pz               79      0.491332   5 O  pz        
    92      0.382516   6 O  py              106     -0.382853   7 O  py        
    40      0.209388   2 O  pz               54     -0.209388   3 O  pz        
 
 Vector   67  Occ=0.000000D+00  E= 1.047064D+00  Symmetry=a
              MO Center= -5.3D-15,  5.0D-15,  2.8D-06, r^2= 6.5D+00
   Bfn.  Coefficient  Atom+Function         Bfn.  Coefficient  Atom+Function  
  ----- ------------  ---------------      ----- ------------  ---------------
     4      1.056535   1 Zn s                 5     -0.862319   1 Zn s         
    38      0.567802   2 O  px               52     -0.567802   3 O  px        
    67      0.567802   4 O  py               81     -0.567802   5 O  py        
    35     -0.425029   2 O  px               49      0.425029   3 O  px        
    64     -0.425029   4 O  py               78      0.425029   5 O  py        
 
 Vector   68  Occ=0.000000D+00  E= 1.113165D+00  Symmetry=b
              MO Center=  5.8D-15, -3.7D-14, -9.3D-06, r^2= 3.1D+00
   Bfn.  Coefficient  Atom+Function         Bfn.  Coefficient  Atom+Function  
  ----- ------------  ---------------      ----- ------------  ---------------
    38      0.467950   2 O  px               52     -0.467950   3 O  px        
    67     -0.467950   4 O  py               81      0.467950   5 O  py        
    35     -0.415294   2 O  px               49      0.415294   3 O  px        
    64      0.415294   4 O  py               78     -0.415294   5 O  py        
    33      0.356033   2 O  s                47      0.356033   3 O  s         
 
 Vector   69  Occ=0.000000D+00  E= 1.119286D+00  Symmetry=a
              MO Center=  2.0D-15,  4.9D-16,  5.6D-08, r^2= 5.5D+00
   Bfn.  Coefficient  Atom+Function         Bfn.  Coefficient  Atom+Function  
  ----- ------------  ---------------      ----- ------------  ---------------
    39      0.587210   2 O  py               53     -0.587210   3 O  py        
    66     -0.587210   4 O  px               80      0.587210   5 O  px        
    36     -0.489477   2 O  py               50      0.489477   3 O  py        
    63      0.489477   4 O  px               77     -0.489477   5 O  px        
 
 Vector   70  Occ=0.000000D+00  E= 1.220725D+00  Symmetry=a
              MO Center= -1.3D-15, -3.9D-15,  8.9D-05, r^2= 4.3D+00
   Bfn.  Coefficient  Atom+Function         Bfn.  Coefficient  Atom+Function  
  ----- ------------  ---------------      ----- ------------  ---------------
    14      1.444374   1 Zn pz               90     -1.376694   6 O  s         
   104      1.376643   7 O  s                96      1.049976   6 O  pz        
   110      1.049870   7 O  pz               89      0.910932   6 O  s         
   103     -0.910934   7 O  s                93     -0.492127   6 O  pz        
   107     -0.492075   7 O  pz               11     -0.152726   1 Zn pz        
 
 Vector   71  Occ=0.000000D+00  E= 1.368126D+00  Symmetry=e+
              MO Center=  1.1D-15, -2.8D-15,  2.4D-04, r^2= 1.7D+00
   Bfn.  Coefficient  Atom+Function         Bfn.  Coefficient  Atom+Function  
  ----- ------------  ---------------      ----- ------------  ---------------
    23      0.969475   1 Zn d  1             18     -0.587189   1 Zn d  1      
    21      0.326809   1 Zn d -1             40      0.260333   2 O  pz        
    54     -0.260333   3 O  pz               16     -0.197941   1 Zn d -1      
    94      0.161444   6 O  px              108     -0.161398   7 O  px        
    37     -0.159479   2 O  pz               51      0.159479   3 O  pz        
 
 Vector   72  Occ=0.000000D+00  E= 1.368126D+00  Symmetry=e+
              MO Center=  6.5D-16, -2.2D-14,  2.4D-04, r^2= 1.7D+00
   Bfn.  Coefficient  Atom+Function         Bfn.  Coefficient  Atom+Function  
  ----- ------------  ---------------      ----- ------------  ---------------
    21      0.969475   1 Zn d -1             16     -0.587189   1 Zn d -1      
    23     -0.326809   1 Zn d  1             68     -0.260333   4 O  pz        
    82      0.260333   5 O  pz               18      0.197941   1 Zn d  1      
    95     -0.161444   6 O  py              109      0.161398   7 O  py        
    65      0.159479   4 O  pz               79     -0.159479   5 O  pz        
 
 Vector   73  Occ=0.000000D+00  E= 1.370044D+00  Symmetry=e+
              MO Center=  2.1D-15,  1.8D-15, -2.6D-04, r^2= 4.0D+00
   Bfn.  Coefficient  Atom+Function         Bfn.  Coefficient  Atom+Function  
  ----- ------------  ---------------      ----- ------------  ---------------
    12      1.604088   1 Zn px               34     -1.516578   2 O  s         
    48      1.516578   3 O  s                38      1.073725   2 O  px        
    52      1.073725   3 O  px               33      0.944487   2 O  s         
    47     -0.944487   3 O  s                13     -0.519058   1 Zn py        
    62      0.490743   4 O  s                76     -0.490743   5 O  s         
 
 Vector   74  Occ=0.000000D+00  E= 1.370044D+00  Symmetry=e+
              MO Center= -7.8D-15,  3.3D-14, -2.6D-04, r^2= 4.0D+00
   Bfn.  Coefficient  Atom+Function         Bfn.  Coefficient  Atom+Function  
  ----- ------------  ---------------      ----- ------------  ---------------
    13      1.604088   1 Zn py               62     -1.516578   4 O  s         
    76      1.516578   5 O  s                67      1.073725   4 O  py        
    81      1.073725   5 O  py               61      0.944487   4 O  s         
    75     -0.944487   5 O  s                12      0.519058   1 Zn px        
    34     -0.490743   2 O  s                48      0.490743   3 O  s         
 
[...]
    48     -0.120676   3 O  s                38     -0.089432   2 O  px        
    52     -0.089432   3 O  px               33     -0.061160   2 O  s         
    47      0.061160   3 O  s                35      0.025462   2 O  px        
 

   alpha - beta orbital overlaps 
   ----------------------------- 


   alpha      1      2      3      4      5      6      7      8      9     10
    beta      1      2      5      3      4      6      7      8     10      9
 overlap   1.000  1.000  1.000  1.000  1.000  1.000  1.000  0.999  0.988  0.989


   alpha     11     12     13     14     15     16     17     18     19     20
    beta     11     12     15     13     14     21     20     16     18     17
 overlap   0.998  1.000  1.000  1.000  1.000  0.920  0.995  0.925  1.000  1.000


   alpha     21     22     23     24     25     26     27     28     29     30
    beta     19     26     23     24     25     22     34     41     40     36
 overlap   0.999  0.962  0.975  0.975  0.993  1.000  0.962  0.960  0.960  0.724


   alpha     31     32     33     34     35     36     37     38     39     40
    beta     37     27     42     39     44     43     38     28     29     30
 overlap   0.724  0.743  0.967  0.767  0.749  0.749  1.000  0.747  0.747  0.990


   alpha     41     42     43     44     45     46     47     48     49     50
    beta     35     32     33     31     45     46     47     49     48     52
 overlap   1.000  0.772  0.771  0.999  0.994  0.994  0.995  0.994  0.994  0.991


   alpha     51     52     53     54     55     56     57     58     59     60
    beta     51     54     53     50     61     60     55     57     56     62
 overlap   0.991  0.999  0.990  0.996  0.744  0.744  1.000  0.990  0.990  1.000


   alpha     61     62     63     64     65     66     67     68     69     70
    beta     63     64     59     58     68     67     65     69     66     70
 overlap   0.999  0.936  0.754  0.754  0.993  0.993  0.939  1.000  0.999  0.999


   alpha     71     72     73     74     75     76     77     78     79     80
    beta     73     72     71     75     74     76     78     77     88     87
 overlap   0.992  1.000  1.000  0.999  0.999  0.999  0.994  1.000  0.776  0.775


   alpha     81     82     83     84     85     86     87     88     89     90
    beta     89     90     85     84     83     82     86     97     99     98
 overlap   0.754  0.753  0.974  0.974  0.919  0.919  0.983  0.999  0.853  0.853


   alpha     91     92     93     94     95     96     97     98     99    100
    beta     94     93     92     91     96     95     81    102    101     79
 overlap   0.987  0.965  0.973  1.000  0.933  0.991  1.000  0.963  0.963  0.921


   alpha    101    102    103    104    105    106    107    108    109    110
    beta     80    103    100    104    106    105    107    108    112    111
 overlap   0.921  0.910  0.997  0.983  0.966  0.966  0.963  0.994  0.987  0.987


   alpha    111    112    113    114    115
    beta    110    109    113    114    115
 overlap   1.000  1.000  1.000  0.987  0.987

     --------------------------
     Expectation value of S2:  
     --------------------------
      <S2> =      6.0399 (Exact =     2.0000)
 

 center of mass
 --------------
 x =   0.00000000 y =   0.00000000 z =   0.00000000

 moments of inertia (a.u.)
 ------------------
         960.739095236686           0.000000000000           0.000000000000
           0.000000000000         960.739095236686           0.000000000000
           0.000000000000           0.000000000000         913.901636372590
 
     Multipole analysis of the density
     ---------------------------------
 
     L   x y z        total         alpha         beta         nuclear
     -   - - -        -----         -----         ----         -------
     0   0 0 0     -0.000000    -40.000000    -38.000000     78.000000
 
     1   1 0 0      0.000508      0.000314      0.000194      0.000000
     1   0 1 0      0.000276      0.000226      0.000050      0.000000
     1   0 0 1      0.004480     -0.000015      0.004495      0.000000
 
     2   2 0 0    -37.285863   -125.956286   -139.877693    228.548116
     2   1 1 0     -0.000000     -0.000000     -0.000000      0.000000
     2   1 0 1      0.000000      0.000000      0.000000      0.000000
     2   0 2 0    -37.292794   -125.951558   -139.889352    228.548116
     2   0 1 1      0.000000      0.000000      0.000000      0.000000
     2   0 0 2    -28.955205   -172.892829   -108.036674    251.974298
 

 Parallel integral file used     169 records with       0 large values

 
               ZORA NMR Hyperfine
               ------------------
 
 
            Hyperfine Tensor (in au)
            ------------------------
 
nat_slc=   1
 In hnd_hyperfine_zora:: atomnr(  1)=    1
(con,gnu,isonr,const_hfine)(  1,  1)=(    95.52131600,     0.35019160, 67,    33.45076249)

 Read ZORA NMR data from ./zno_g.zora_nmrhyp

                                NWChem CPHF Module
                                ------------------
 
 
  sssssssssscftype UHF 
  sssssssssscftype UHF 
  sssssssssscftype UHF 
  scftype          =     UHF 
  nalpha           =       40
  nbeta            =       38
  variables        =     5926
  # of vectors     =        3
  tolerance        = 0.10D-03
  level shift      = 0.00D+00
  max iterations   =       50
  max subspace     =       30


 Integral file          = ./zno_g.aoints.0
 Record size in doubles =  65536        No. of integs per rec  =  43688
 Max. records in memory =      0        Max. records in file   =  98468
 No. of bits per label  =      8        No. of bits per value  =     64


 #quartets = 4.439D+05 #integrals = 7.291D+06 #direct =  0.0% #cached =100.0%


File balance: exchanges=     2  moved=    10  time=   0.0

 SCF residual:   8.821344687306004E-004


Iterative solution of linear equations
  No. of variables     5926
  No. of equations        3
  Maximum subspace       30
        Iterations       50
       Convergence  1.0D-04
        Start time    449.1


   iter   nsub   residual    time
   ----  ------  --------  ---------
     1      3    1.24D-03     469.6
     2      6    3.14D-04     490.7
     3      9    5.01D-03     512.4
     4     12    3.43D-04     533.5
     5     15    5.13D-04     554.7
     6     18    1.29D-04     575.9
     7     21    8.42D-05     597.1

------------------------------------------------------------
EAF file 1: "./zno_g.aoints.0" size=29884416 bytes
------------------------------------------------------------
               write      read    awrite     aread      wait
               -----      ----    ------     -----      ----
     calls:       67         2         0         8         8
   data(b): 3.51e+07  1.05e+06  0.00e+00  4.19e+06
   time(s): 0.00e+00  0.00e+00  0.00e+00  0.00e+00  0.00e+00
rate(mb/s): 0.00e+00  0.00e+00
------------------------------------------------------------


 Parallel integral file used     169 records with       0 large values


 Wrote CPHF data to ./zno_g.zora_hypcphf

NATOMS=  1
NW:(dia,par,dia+par)(1,1,1)=(     0.63462947      0.04082714      0.67545661 )
NW:(dia,par,dia+par)(1,2,1)=(    -0.00000001      0.00000004      0.00000003 )
NW:(dia,par,dia+par)(1,3,1)=(    -0.00000002      0.00000039      0.00000037 )
NW:(dia,par,dia+par)(2,1,1)=(    -0.00000001      0.00000004      0.00000003 )
NW:(dia,par,dia+par)(2,2,1)=(     0.63456612      0.04062934      0.67519546 )
NW:(dia,par,dia+par)(2,3,1)=(    -0.00000001      0.00000024      0.00000022 )
NW:(dia,par,dia+par)(3,1,1)=(    -0.00000002      0.00000039      0.00000037 )
NW:(dia,par,dia+par)(3,2,1)=(    -0.00000001      0.00000024      0.00000022 )
NW:(dia,par,dia+par)(3,3,1)=(     1.76479497     -0.05778561      1.70700937 )
      Atom:    1  Zn

 ----- A-tensor in atomic units ----         ------------- A (MHz) ------------

 FC, SD terms:
  isotropic    A(au)      1.0113                           A(MHz)     33.8298
      0.6346     -0.0000     -0.0000            21.2288     -0.0000     -0.0000
     -0.0000      0.6346     -0.0000            -0.0000     21.2267     -0.0000
     -0.0000     -0.0000      1.7648            -0.0000     -0.0000     59.0337

 PSO-Spin-Orbit terms:
  isotropic    A(au)      0.0079                           A(MHz)      0.2639
      0.0408      0.0000      0.0000             1.3657      0.0000      0.0000
      0.0000      0.0406      0.0000             0.0000      1.3591      0.0000
      0.0000      0.0000     -0.0578             0.0000      0.0000     -1.9330

 Total hyperfine coupling tensor:
  isotropic    A(au)      1.0192                           A(MHz)     34.0937
      0.6755      0.0000      0.0000            22.5945      0.0000      0.0000
      0.0000      0.6752      0.0000             0.0000     22.5858      0.0000
      0.0000      0.0000      1.7070             0.0000      0.0000     57.1008

 In principal axis representation: total span,skew and asymm
        span        skew       asymm               span        skew       asymm
      1.0318      0.9995      0.0004            34.5150     33.4338      0.0127

 Principal Components and Axis System
        1           2           3                 1           2           3
      0.6752      0.6755      1.7070            22.5858     22.5945     57.1008

1    -0.0001      1.0000      0.0000
2     1.0000      0.0001      0.0000
3    -0.0000     -0.0000      1.0000



 
                  ZORA g-Shift
                  ------------
 
 
             g-Shift Tensor (in ppm)
             -----------------------
 

 Read ZORA NMR data from ./zno_g.zora_nmrgshift


 Read ZORA NMR data from ./zno_g.zora_nmrgshift_AB

nocc=( 40, 38) nclos=(  0,  0) nvirt=( 75, 77) scftyp=UHF)
 coeffpol=   2.00000000000000     
                                NWChem CPHF Module
                                ------------------
 
 
  sssssssssscftype UHF 
  sssssssssscftype UHF 
  sssssssssscftype UHF 
  scftype          =     UHF 
  nalpha           =       40
  nbeta            =       38
  variables        =     5926
  # of vectors     =        3
  tolerance        = 0.10D-03
  level shift      = 0.00D+00
  max iterations   =       50
  max subspace     =       30


 Integral file          = ./zno_g.aoints.0
 Record size in doubles =  65536        No. of integs per rec  =  43688
 Max. records in memory =      0        Max. records in file   =  98468
 No. of bits per label  =      8        No. of bits per value  =     64


 #quartets = 4.439D+05 #integrals = 7.291D+06 #direct =  0.0% #cached =100.0%


File balance: exchanges=     2  moved=    10  time=   0.0

 SCF residual:   8.821344687302903E-004


Iterative solution of linear equations
  No. of variables     5926
  No. of equations        3
  Maximum subspace       30
        Iterations       50
       Convergence  1.0D-04
        Start time    698.1


   iter   nsub   residual    time
   ----  ------  --------  ---------
     1      3    3.10D+00     723.8
     2      6    4.72D+00     749.9
     3      9    5.29D-01     776.2
     4     12    5.10D-01     802.5
     5     15    1.41D+00     828.8
     6     18    2.00D-01     855.2
     7     21    1.58D-01     881.3
     8     24    4.41D-02     907.6
     9     27    9.55D-03     933.8
    10     30    1.60D-03     960.0
    11     30    4.48D-04     986.3
    12     30    2.37D-04    1012.5
    13     30    1.08D-04    1039.0
    14     30    1.24D-04    1065.2
    15     30    4.94D-05    1091.4

------------------------------------------------------------
EAF file 1: "./zno_g.aoints.0" size=29884416 bytes
------------------------------------------------------------
               write      read    awrite     aread      wait
               -----      ----    ------     -----      ----
     calls:       67         2         0         8         8
   data(b): 3.51e+07  1.05e+06  0.00e+00  4.19e+06
   time(s): 0.00e+00  0.00e+00  0.00e+00  0.00e+00  0.00e+00
rate(mb/s): 0.00e+00  0.00e+00
------------------------------------------------------------


 Parallel integral file used     169 records with       0 large values


 Wrote CPHF data to ./zno_g.zora_gshiftcphf

NW-1:(dia,gauge,OO,OV,Totpar)(1,1)=(  -24.805361    -0.001620     0.033972   -24.522764   -24.490412 )
NW-1:(dia,gauge,OO,OV,Totpar)(1,2)=(    0.000001     0.000002     0.000431     0.000752     0.001184 )
NW-1:(dia,gauge,OO,OV,Totpar)(1,3)=(    0.000000     0.000000     0.000000     0.000015     0.000015 )
NW-1:(dia,gauge,OO,OV,Totpar)(2,1)=(   -0.000001    -0.000002    -0.000431    -0.000921    -0.001353 )
NW-1:(dia,gauge,OO,OV,Totpar)(2,2)=(  -24.805362    -0.001620     0.033894   -24.537897   -24.505622 )
NW-1:(dia,gauge,OO,OV,Totpar)(2,3)=(    0.000000     0.000000     0.000000     0.000017     0.000017 )
NW-1:(dia,gauge,OO,OV,Totpar)(3,1)=(    0.000000     0.000000     0.000000    -0.000017    -0.000017 )
NW-1:(dia,gauge,OO,OV,Totpar)(3,2)=(    0.000000     0.000000     0.000000    -0.000032    -0.000032 )
NW-1:(dia,gauge,OO,OV,Totpar)(3,3)=(  -24.920233     0.005830     0.131609   -27.762665   -27.625226 )
NW-2:(dia,gauge,OO,OV,Totpar)(1,1)=(  -24.818236     0.004539     0.118368   -40.529160   -40.406253 )
NW-2:(dia,gauge,OO,OV,Totpar)(1,2)=(   -0.000001    -0.000002     0.000081     0.002981     0.003060 )
NW-2:(dia,gauge,OO,OV,Totpar)(1,3)=(   -0.000000     0.000000     0.000000    -0.000019    -0.000019 )
NW-2:(dia,gauge,OO,OV,Totpar)(2,1)=(    0.000001     0.000002    -0.000081    -0.002808    -0.002888 )
NW-2:(dia,gauge,OO,OV,Totpar)(2,2)=(  -24.818234     0.004540     0.118244   -40.511647   -40.388863 )
NW-2:(dia,gauge,OO,OV,Totpar)(2,3)=(   -0.000000     0.000000     0.000000    -0.000021    -0.000021 )
NW-2:(dia,gauge,OO,OV,Totpar)(3,1)=(   -0.000000    -0.000000     0.000000     0.000133     0.000133 )
NW-2:(dia,gauge,OO,OV,Totpar)(3,2)=(   -0.000000     0.000000     0.000000     0.000083     0.000083 )
NW-2:(dia,gauge,OO,OV,Totpar)(3,3)=(  -24.752157    -0.003562    -0.550286   -28.966755   -29.520603 )
NW-T:(dia,gauge,OO,OV,Totpar)(1,1)=(    0.012875    -0.006159    -0.084397    16.006396    15.915840 )
NW-T:(dia,gauge,OO,OV,Totpar)(1,2)=(   -0.000000     0.000004     0.000349    -0.002229    -0.001876 )
NW-T:(dia,gauge,OO,OV,Totpar)(1,3)=(    0.000000    -0.000000    -0.000000     0.000034     0.000034 )
NW-T:(dia,gauge,OO,OV,Totpar)(2,1)=(   -0.000000    -0.000004    -0.000349     0.001888     0.001535 )
NW-T:(dia,gauge,OO,OV,Totpar)(2,2)=(    0.012871    -0.006160    -0.084350    15.973750    15.883241 )
NW-T:(dia,gauge,OO,OV,Totpar)(2,3)=(    0.000000    -0.000000    -0.000000     0.000039     0.000039 )
NW-T:(dia,gauge,OO,OV,Totpar)(3,1)=(    0.000000     0.000000    -0.000000    -0.000150    -0.000150 )
NW-T:(dia,gauge,OO,OV,Totpar)(3,2)=(    0.000000    -0.000000    -0.000000    -0.000115    -0.000115 )
NW-T:(dia,gauge,OO,OV,Totpar)(3,3)=(   -0.168076     0.009393     0.681895     1.204091     1.895378 )
        Diamagnetic
      0.0129     -0.0000      0.0000
     -0.0000      0.0129      0.0000
      0.0000      0.0000     -0.1681

        Paramagnetic
     15.9158     -0.0002     -0.0001
     -0.0002     15.8832     -0.0000
     -0.0001     -0.0000      1.8954

        Total g shift Tensor
     15.9287     -0.0002     -0.0001
     -0.0002     15.8961     -0.0000
     -0.0001     -0.0000      1.7273

           isotropic =      11.1840
          anisotropy =       7.1170

          Principal Components and Axis System
                 1           2           3
               15.9287     15.8961      1.7273

      1         1.0000      0.0052      0.0000
      2        -0.0052      1.0000      0.0000
      3        -0.0000     -0.0000      1.0000




 Task  times  cpu:     1021.0s     wall:     1059.7s
 
 
                                NWChem Input Module
                                -------------------
 
 
 Summary of allocated global arrays
-----------------------------------
  array 0 => double precision dft_zora_Hyperfine: g_AtNr(1,1),  handle: -928 



                         GA Statistics for process    0
                         ------------------------------

       create   destroy   get      put      acc     scatter   gather  read&inc
calls: 4783     4782     8.93e+06 8.43e+04 2.09e+06 1045        0     9592     
number of processes/call 1.01e+00 2.00e+00 1.06e+00 0.00e+00 0.00e+00
bytes total:             4.57e+09 4.79e+08 3.18e+09 2.34e+04 0.00e+00 7.67e+04
bytes remote:            1.69e+08 5.97e+07 6.75e+08 0.00e+00 0.00e+00 0.00e+00
Max memory consumed for GA by this process: 9061696 bytes
 
MA_summarize_allocated_blocks: starting scan ...
heap block 'lnmr', handle 31, address 0x1492b010:
	type of elements:		double precision
	number of elements:		13225
	address of client space:	0x1492b080
	index for client space:		26312949
	total number of bytes:		105920
heap block 'lnmr', handle 29, address 0x14911250:
	type of elements:		double precision
	number of elements:		13225
	address of client space:	0x149112c0
	index for client space:		26299709
	total number of bytes:		105920
heap block 'lnmr', handle 27, address 0x148f7490:
	type of elements:		double precision
	number of elements:		13225
	address of client space:	0x148f7500
	index for client space:		26286469
	total number of bytes:		105920
MA_summarize_allocated_blocks: scan completed: 3 heap blocks, 0 stack blocks
MA usage statistics:

	allocation statistics:
					      heap	     stack
					      ----	     -----
	current number of blocks	         3	         0
	maximum number of blocks	        38	        73
	current total bytes		    317760	         0
	maximum total bytes		 136517000	  24873800
	maximum total K-bytes		    136517	     24874
	maximum total M-bytes		       137	        25
 
 
                                     CITATION
                                     --------
                Please cite the following reference when publishing
                           results obtained with NWChem:
 
                 M. Valiev, E.J. Bylaska, N. Govind, K. Kowalski,
              T.P. Straatsma, H.J.J. van Dam, D. Wang, J. Nieplocha,
                        E. Apra, T.L. Windus, W.A. de Jong
                 "NWChem: a comprehensive and scalable open-source
                  solution for large scale molecular simulations"
                      Comput. Phys. Commun. 181, 1477 (2010)
                           doi:10.1016/j.cpc.2010.04.018
 
                                      AUTHORS
                                      -------
          E. Apra, E. J. Bylaska, W. A. de Jong, N. Govind, K. Kowalski,
       T. P. Straatsma, M. Valiev, H. J. J. van Dam, D. Wang, T. L. Windus,
        J. Hammond, J. Autschbach, K. Bhaskaran-Nair, J. Brabec, K. Lopata,
       S. A. Fischer, S. Krishnamoorthy, W. Ma, M. Klemm, O. Villa, Y. Chen,
    V. Anisimov, F. Aquino, S. Hirata, M. T. Hackler, V. Konjkov, T. Risthaus,
       M. Malagoli, A. Marenich, A. Otero-de-la-Roza, J. Mullin, P. Nichols,
      R. Peverati, J. Pittner, Y. Zhao, P.-D. Fan, A. Fonari, M. Williamson,
      R. J. Harrison, J. R. Rehr, M. Dupuis, D. Silverstein, D. M. A. Smith,
            J. Nieplocha, V. Tipparaju, M. Krishnan, B. E. Van Kuiken,
        A. Vazquez-Mayagoitia, L. Jensen, M. Swart, Q. Wu, T. Van Voorhis,
     A. A. Auer, M. Nooijen, L. D. Crosby, E. Brown, G. Cisneros, G. I. Fann,
   H. Fruchtl, J. Garza, K. Hirao, R. A. Kendall, J. A. Nichols, K. Tsemekhman,
    K. Wolinski, J. Anchell, D. E. Bernholdt, P. Borowski, T. Clark, D. Clerc,
   H. Dachsel, M. J. O. Deegan, K. Dyall, D. Elwood, E. Glendening, M. Gutowski,
   A. C. Hess, J. Jaffe, B. G. Johnson, J. Ju, R. Kobayashi, R. Kutteh, Z. Lin,
   R. Littlefield, X. Long, B. Meng, T. Nakajima, S. Niu, L. Pollack, M. Rosing,
   K. Glaesemann, G. Sandrone, M. Stave, H. Taylor, G. Thomas, J. H. van Lenthe,
                               A. T. Wong, Z. Zhang.

 Total times  cpu:     1051.0s     wall:     1091.5s
