 argument  1 = cosmo_trichloroethene.nw
                                         
                                         


              Northwest Computational Chemistry Package (NWChem) 4.0
              ------------------------------------------------------


                    Environmental Molecular Sciences Laboratory
                       Pacific Northwest National Laboratory
                                Richland, WA 99352

                                         
                                         


            COPYRIGHT (C) 1994, 1995, 1996, 1997, 1998, 1999, 2000, 2001
                        Pacific Northwest National Laboratory,
                             Battelle Memorial Institute.

                            >>> All Rights Reserved <<<


                                    DISCLAIMER
                                    ----------

            This material was prepared as an account of work sponsored
            by an agency of the United States Government.  Neither the
            United States Government nor the United States Department
            of Energy, nor Battelle, nor any of their employees, MAKES
            ANY WARRANTY, EXPRESS OR IMPLIED, OR ASSUMES ANY LEGAL
            LIABILITY OR RESPONSIBILITY FOR THE ACCURACY, COMPLETENESS,
            OR USEFULNESS OF ANY INFORMATION, APPARATUS, PRODUCT,
            SOFTWARE, OR PROCESS DISCLOSED, OR REPRESENTS THAT ITS USE
            WOULD NOT INFRINGE PRIVATELY OWNED RIGHTS.


                                    LIMITED USE
                                    -----------

            This software (including any documentation) is being made
            available to you for your internal use only, solely for use
            in performance of work directly for the U.S. Federal
            Government or work under contracts with the U.S. Department
            of Energy or other U.S. Federal Government agencies.  This
            software is a version which has not yet been evaluated and
            cleared for commercialization.  Adherence to this notice
            may be necessary for the author, Battelle Memorial
            Institute, to successfully assert copyright in and
            commercialize this software. This software is not intended
            for duplication or distribution to third parties without
            the permission of the Manager of Software Products at
            Pacific Northwest National Laboratory, Richland,
            Washington, 99352.


                                  ACKNOWLEDGMENT
                                  --------------

            This software and its documentation were produced with
            Government support under Contract Number DE-AC06-76RLO-1830
            awarded by the United States Department of Energy.  The
            Government retains a paid-up non-exclusive, irrevocable
            worldwide license to reproduce, prepare derivative works,
            perform publicly and display publicly by or for the
            Government, including the right to distribute to other
            Government contractors.


           Job information
           ---------------

    hostname      = snickers
    program       = /msrc/home/sohirata/nwchem/bin/LINUX/nwchem
    date          = Fri Jan  4 15:17:03 2002

    compiled      = Fri Jan  4 13:57:12 PST 2002
    source        = /msrc/home/sohirata/nwchem
    nwchem branch = Development
    input         = cosmo_trichloroethene.nw
    prefix        = trichloro.
    data base     = ./trichloro.db
    status        = startup
    nproc         =    1
    time left     =     -1s



           Memory information
           ------------------

    heap      =    8847354 doubles =     67.5 Mbytes
    stack     =    2949107 doubles =     22.5 Mbytes
    global    =   11796484 doubles =     90.0 Mbytes (within heap+stack)
    total     =   11796461 doubles =     90.0 Mbytes
    verify    = yes
    hardfail  = no 


           Directory information
           ---------------------

  0 permanent = .
  0 scratch   = .




                                NWChem Input Module
                                -------------------


                                                                                                         Trichloroethene BLYP/DZVP2 solvated (UA Radii)
                                                                                                         ----------------------------------------------


 Scaling coordinates for geometry "geometry" by  1.889725989
 (inverse scale =  0.529177249)


          ------
          auto-z
          ------


                             Geometry "geometry" -> ""
                             -------------------------

 Output coordinates in angstroms (scale by  1.889725989 to convert to a.u.)

  No.       Tag          Charge          X              Y              Z
 ---- ---------------- ---------- -------------- -------------- --------------
    1 C                    6.0000    -0.43270800    -0.10676000    -0.00011000
    2 C                    6.0000     0.65185100    -0.91693100     0.00010200
    3 Cl                  17.0000    -2.05048400    -0.81419700    -0.00027600
    4 Cl                  17.0000    -0.36803300     1.64238700    -0.00011300
    5 Cl                  17.0000     2.30911900    -0.34915800     0.00038300
    6 H                    1.0000     0.54489700    -2.00140600     0.00014900

      Atomic Mass 
      ----------- 

      C                 12.000000
      Cl                34.968850
      H                  1.007825


 Effective nuclear repulsion energy (a.u.)     311.2008159772

            Nuclear Dipole moment (a.u.) 
            ----------------------------
        X                 Y               Z
 ---------------- ---------------- ----------------
    -0.0000207870    -0.0000151178    -0.0000018897



                                Z-matrix (autoz)
                                -------- 

 Units are Angstrom for bonds and degrees for angles

      Type          Name      I     J     K     L     M      Value
      ----------- --------  ----- ----- ----- ----- ----- ----------
    1 Stretch                  1     2                       1.35375
    2 Stretch                  1     3                       1.76569
    3 Stretch                  1     4                       1.75034
    4 Stretch                  2     5                       1.75183
    5 Stretch                  2     6                       1.08974
    6 Bend                     1     2     5               124.32884
    7 Bend                     1     2     6               121.12746
    8 Bend                     2     1     3               119.62082
    9 Bend                     2     1     4               124.64236
   10 Bend                     3     1     4               115.73683
   11 Bend                     5     2     6               114.54370
   12 Torsion                  3     1     2     5        -179.99609
   13 Torsion                  3     1     2     6           0.00144
   14 Torsion                  4     1     2     5          -0.00108
   15 Torsion                  4     1     2     6         179.99645

 ==============================================================================
                                internuclear distances
 ------------------------------------------------------------------------------
       center one      |      center two      | atomic units |  angstroms
 ------------------------------------------------------------------------------
    2 C                |   1 C                |     2.55822  |     1.35375
    3 Cl               |   1 C                |     3.33667  |     1.76569
    4 Cl               |   1 C                |     3.30767  |     1.75034
    5 Cl               |   2 C                |     3.31048  |     1.75183
    6 H                |   2 C                |     2.05930  |     1.08974
 ------------------------------------------------------------------------------
                         number of included internuclear distances:          5
 ==============================================================================



 ==============================================================================
                                 internuclear angles
 ------------------------------------------------------------------------------
        center 1       |       center 2       |       center 3       |  degrees
 ------------------------------------------------------------------------------
    2 C                |   1 C                |   3 Cl               |   119.62
    2 C                |   1 C                |   4 Cl               |   124.64
    3 Cl               |   1 C                |   4 Cl               |   115.74
    1 C                |   2 C                |   5 Cl               |   124.33
    1 C                |   2 C                |   6 H                |   121.13
    5 Cl               |   2 C                |   6 H                |   114.54
 ------------------------------------------------------------------------------
                            number of included internuclear angles:          6
 ==============================================================================



  library name resolved from: .nwchemrc
  library file name is: </msrc/proj/nwchem/share/library>
  
                      Basis "ao basis" -> "" (cartesian)
                      -----
  H (Hydrogen)
  ------------
            Exponent  Coefficients 
       -------------- ---------------------------------------------------------
  1 S  5.09991780E+01  0.009661
  1 S  7.48321810E+00  0.073729
  1 S  1.77746760E+00  0.295858
  1 S  5.19329500E-01  0.715905

  2 S  1.54110000E-01  1.000000

  3 P  7.50000000E-01  1.000000

  C (Carbon)
  ----------
            Exponent  Coefficients 
       -------------- ---------------------------------------------------------
  1 S  5.78415710E+03  0.000819
  1 S  8.69303500E+02  0.006293
  1 S  1.98511640E+02  0.031781
  1 S  5.64299010E+01  0.117273
  1 S  1.82854570E+01  0.303476
  1 S  6.44871460E+00  0.453521
  1 S  2.34185960E+00  0.243059

  2 S  5.45953280E+00 -0.077804
  2 S  4.78196800E-01  0.571495

  3 S  1.45730100E-01  1.000000

  4 P  3.42585630E+01  0.005804
  4 P  7.86389540E+00  0.040640
  4 P  2.34451930E+00  0.155022
  4 P  7.96171500E-01  0.353144
  4 P  2.72680400E-01  0.455006

  5 P  8.92605000E-02  1.000000

  6 D  6.00000000E-01  1.000000

  Cl (Chlorine)
  -------------
            Exponent  Coefficients 
       -------------- ---------------------------------------------------------
  1 S  6.39236260E+04 -0.000574
  1 S  9.52598700E+03 -0.004485
  1 S  2.14631160E+03 -0.023394
  1 S  5.98027410E+02 -0.092805
  1 S  1.90028550E+02 -0.269320
  1 S  6.62619630E+01 -0.462961
  1 S  2.40966080E+01 -0.293712

  2 S  5.29332530E+01  0.095477
  2 S  5.59230800E+00 -0.593016
  2 S  2.09395600E+00 -0.481690

  3 S  3.55768590E+00 -0.180750
  3 S  4.84746900E-01  0.688959

  4 S  1.73304600E-01  1.000000

  5 P  5.83201150E+02 -0.003051
  5 P  1.35447250E+02 -0.024912
  5 P  4.23356250E+01 -0.114711
  5 P  1.51542700E+01 -0.314748
  5 P  5.68306770E+00 -0.478101
  5 P  2.09023900E+00 -0.271769

  6 P  1.09799700E+00 -0.278579
  6 P  3.82276100E-01 -0.545183

  7 P  1.24998500E-01  1.000000

  8 D  7.50000000E-01  1.000000



 Summary of "ao basis" -> "" (cartesian)
 ------------------------------------------------------------------------------
       Tag                 Description            Shells   Functions and Types
 ---------------- ------------------------------  ------  ---------------------
 H                    DZVP2 (DFT Orbital)            3        5   2s1p
 C                    DZVP2 (DFT Orbital)            6       15   3s2p1d
 Cl                   DZVP2 (DFT Orbital)            8       19   4s3p1d



          ---------------
          -cosmo- solvent
          ---------------
 dielectric constant -eps-  =  78.40
 charge screening approach  =   0
 screen =  one              =   1.00000
 -lineq- algorithm          =   0
 -bem- low  level           =   2
 -bem- high level           =   3
 -bem- from -octahedral-
 solvent radius (ang.)      =   0.000
 atomic radii = 
 --------------
    1    6  1.962
    2    6  2.178
    3   17  2.376
    4   17  2.376
    5   17  2.376
    6    1  0.000

 solvent accessible surface
 --------------------------
 number of segments per atom =         32
 number of   points per atom =        128
 atom (   nspa,  nppa )
 ----------------------
    1 (      6,     6 )       6
    2 (     16,    42 )      42
    3 (     24,    90 )      90
    4 (     24,    82 )      82
    5 (     26,    88 )      88
    6 (      0,     0 )       0
 number of -cosmo- surface points =       96
 molecular surface =    165.928 angstrom**2
 molecular volume  =    129.811 angstrom**3
 G(cav/disp)       =      1.690 kcal/mol
 ...... end of -cosmo- initialization ......


                                 NWChem DFT Module
                                 -----------------


                  Trichloroethene BLYP/DZVP2 solvated (UA Radii)


  Caching 1-el integrals 
  itol2e modified to match energy
  convergence criterion.

            General Information
            -------------------
          SCF calculation type: DFT
          Wavefunction type:  closed shell.
          No. of atoms     :     6
          No. of electrons :    64
           Alpha electrons :    32
            Beta electrons :    32
          Charge           :     0
          Spin multiplicity:     1
          Use of symmetry is: off; symmetry adaption is: off
          Maximum number of iterations: ***
          AO basis - number of functions:    92
                     number of shells:    39
          Convergence on energy requested: 0.10E-05
          Convergence on density requested: 0.10E-04
          Convergence on gradient requested: 0.50E-03

              XC Information
              --------------
                    Becke 1988 Exchange Functional   1.00          
              Lee-Yang-Parr Correlation Functional   1.00          

             Grid Information
             ----------------
          Grid used for XC integration:  medium    
          Radial quadrature: Mura-Knowles        
          Angular quadrature: Lebedev. 
          Tag              B.-S. Rad. Rad. Pts. Rad. Cut. Ang. Pts.
          ---              ---------- --------- --------- ---------
          C                   0.70       49           9.0       434
          Cl                  1.00       88          11.0       590
          H                   0.35       45          10.0       434
          Grid pruning is: on 
          Number of quadrature shells:   407
          Spatial weights used:  Erf1

          Convergence Information
          -----------------------
          Convergence aids based upon iterative change in 
          total energy or number of iterations. 
          Levelshifting, if invoked, occurs when the 
          HOMO/LUMO gap drops below (HL_TOL): 0.10E-01
          DIIS, if invoked, will attempt to extrapolate 
          using up to (NFOCK): 10 stored Fock matrices.

                    Damping( 0%)  Levelshifting(0.1)       DIIS
                  --------------- ------------------- ---------------
          dE  on:    start            ASAP                start   
          dE off:    2 iters        *** iters           *** iters 


      Screening Tolerance Information
      -------------------------------
          Density screening/tol_rho: 0.10E-09
          AO Gaussian exp screening on grid/accAOfunc:  14
          CD Gaussian exp screening on grid/accCDfunc:  20
          XC Gaussian exp screening on grid/accXCfunc:  20
          Schwarz screening/accCoul: 0.10E-07
          Spatial weight screening/radius(au): 0.22E+02


      Superposition of Atomic Density Guess
      -------------------------------------

 Sum of atomic energies:       -1454.14620161

      Non-variational initial energy
      ------------------------------

 Total energy =   -1455.752939
 1-e energy   =   -2626.529178
 2-e energy   =     859.575423
 HOMO         =      -0.238906
 LUMO         =       0.024082

 charge screening approach  =   0
 screen =  one              =   1.00000
   Time prior to 1st pass:      8.8

 Integral file          = ./trichloro.aoints.0
 Record size in doubles =  65536        No. of integs per rec  =  43688
 Max. records in memory =      0        Max. records in file   =  16698
 No. of bits per label  =      8        No. of bits per value  =     64


 #quartets = 2.470E+05 #integrals = 6.084E+06 #direct =  0.0% #cached =100.0%


 Grid_pts file          = ./trichloro.gridpts.0
 Record size in doubles =  12289        No. of grid_pts per rec  =   3070
 Max. records in memory =     87        Max. records in file   =  89054


           Memory utilization after 1st SCF pass: 
           Heap Space remaining (MW):        7.52             7519434
          Stack Space remaining (MW):        2.95             2948568

   convergence    iter        energy       DeltaE   RMS-Dens  Diis-err    time
 ---------------- ----- ----------------- --------- --------- ---------  ------
     gas_phase
 d= 0,ls=0.0,diis     1  -1457.2112393663 -1.77E+03  2.54E-02  1.32E+00    39.6
 d= 0,ls=0.0,diis     2  -1456.7461937205  4.65E-01  2.09E-02  4.46E+00    53.6
 d= 0,ls=0.0,diis     3  -1457.3078542996 -5.62E-01  6.57E-03  2.01E-01    67.6
 d= 0,ls=0.0,diis     4  -1457.3200934727 -1.22E-02  3.93E-03  1.09E-01    81.7
 d= 0,ls=0.0,diis     5  -1457.3349135454 -1.48E-02  1.05E-03  1.02E-02    95.7
 d= 0,ls=0.0,diis     6  -1457.3362592726 -1.35E-03  2.61E-04  4.38E-04   109.7
 d= 0,ls=0.0,diis     7  -1457.3363121730 -5.29E-05  9.86E-05  4.64E-05   123.6
 d= 0,ls=0.0,diis     8  -1457.3363197390 -7.57E-06  1.51E-05  1.35E-06   137.7
 d= 0,ls=0.0,diis     9  -1457.3363199368 -1.98E-07  4.16E-06  5.61E-08   151.7
 d= 0,ls=0.0,diis     2  -1457.3393540617 -3.03E-03  1.48E-03  1.09E-03   167.1
 d= 0,ls=0.0,diis     3  -1457.3396350594 -2.81E-04  4.87E-04  7.37E-04   182.4
 d= 0,ls=0.0,diis     4  -1457.3396831640 -4.81E-05  2.42E-04  5.54E-04   197.8
 d= 0,ls=0.0,diis     5  -1457.3397526527 -6.95E-05  8.88E-05  4.21E-05   213.2
 d= 0,ls=0.0,diis     6  -1457.3397563392 -3.69E-06  3.66E-05  1.51E-05   228.5
 d= 0,ls=0.0,diis     7  -1457.3397583393 -2.00E-06  9.71E-06  6.92E-07   243.9
 d= 0,ls=0.0,diis     8  -1457.3397584338 -9.45E-08  2.86E-06  5.01E-08   259.2


         Total DFT energy =  -1457.339758433807
      One electron energy =  -2627.884835216188
           Coulomb energy =    955.244208435937
    Exchange-Corr. energy =    -95.699515735289
 Nuclear repulsion energy =    311.200815977166

 Numeric. integr. density =     63.999999294037

     Total iterative time =    250.5s


 -cosmo- energy summary
 ----------------------
                 gas_phase energy =     -1457.3363199368
                 sol_phase energy =     -1457.3397584338
 (electrostatic) solvation energy =         0.0034384970 (    2.16 kcal/mol)

                       DFT Final Molecular Orbital Analysis
                       ------------------------------------

 Vector   18  Occ=2.000000E+00  E=-8.465552E-01
              MO Center= -4.5E-01,  1.1E-01, -8.4E-05, r^2= 2.5E+00
   Bfn.  Coefficient  Atom+Function         Bfn.  Coefficient  Atom+Function  
  ----- ------------  ---------------      ----- ------------  ---------------
    52      0.319035  4 Cl s                 33      0.288217  3 Cl s          
     2      0.282287  1 C  s                 51      0.194475  4 Cl s          
    53      0.182823  4 Cl s                 32      0.175481  3 Cl s          
    17      0.165816  2 C  s                 71      0.164584  5 Cl s          
    34      0.161354  3 Cl s          

 Vector   19  Occ=2.000000E+00  E=-7.952276E-01
              MO Center=  1.3E+00, -4.2E-01,  2.1E-04, r^2= 2.9E+00
   Bfn.  Coefficient  Atom+Function         Bfn.  Coefficient  Atom+Function  
  ----- ------------  ---------------      ----- ------------  ---------------
    71      0.502626  5 Cl s                 72      0.304581  5 Cl s          
    70      0.303511  5 Cl s                 33     -0.222320  3 Cl s          
    17      0.178997  2 C  s          

 Vector   20  Occ=2.000000E+00  E=-7.707497E-01
              MO Center= -1.0E+00,  3.8E-01, -1.7E-04, r^2= 2.7E+00
   Bfn.  Coefficient  Atom+Function         Bfn.  Coefficient  Atom+Function  
  ----- ------------  ---------------      ----- ------------  ---------------
    52      0.452376  4 Cl s                 33     -0.420614  3 Cl s          
    53      0.287900  4 Cl s                 51      0.270749  4 Cl s          
    34     -0.269475  3 Cl s                 32     -0.252229  3 Cl s          
     5      0.169557  1 C  py         

 Vector   21  Occ=2.000000E+00  E=-6.629617E-01
              MO Center=  2.3E-01, -4.4E-01,  3.3E-05, r^2= 3.0E+00
   Bfn.  Coefficient  Atom+Function         Bfn.  Coefficient  Atom+Function  
  ----- ------------  ---------------      ----- ------------  ---------------
    17      0.297541  2 C  s                 71     -0.293214  5 Cl s          
     2      0.245803  1 C  s                 33     -0.238590  3 Cl s          
    72     -0.208788  5 Cl s                  4      0.191439  1 C  px         
    19     -0.186597  2 C  px                52     -0.183643  4 Cl s          
    34     -0.179196  3 Cl s                 70     -0.171221  5 Cl s          

 Vector   22  Occ=2.000000E+00  E=-5.171047E-01
              MO Center=  6.8E-02, -2.0E-01,  1.1E-05, r^2= 4.2E+00
   Bfn.  Coefficient  Atom+Function         Bfn.  Coefficient  Atom+Function  
  ----- ------------  ---------------      ----- ------------  ---------------
     2      0.272719  1 C  s                 58      0.272604  4 Cl py         
     3      0.226804  1 C  s                 18     -0.224200  2 C  s          
    17     -0.221656  2 C  s                 20      0.213955  2 C  py         
    52     -0.208985  4 Cl s                 53     -0.190104  4 Cl s          
    88     -0.173864  6 H  s                 38     -0.169419  3 Cl px         

 Vector   23  Occ=2.000000E+00  E=-4.530333E-01
              MO Center= -4.4E-01, -6.4E-01, -5.5E-05, r^2= 3.5E+00
   Bfn.  Coefficient  Atom+Function         Bfn.  Coefficient  Atom+Function  
  ----- ------------  ---------------      ----- ------------  ---------------
     4     -0.368604  1 C  px                20     -0.368570  2 C  py         
    38     -0.359580  3 Cl px                76     -0.191847  5 Cl px         
    34     -0.173171  3 Cl s                 33     -0.165927  3 Cl s          
    88      0.159799  6 H  s          

 Vector   24  Occ=2.000000E+00  E=-4.385209E-01
              MO Center=  5.4E-01,  1.2E-01,  7.1E-05, r^2= 3.6E+00
   Bfn.  Coefficient  Atom+Function         Bfn.  Coefficient  Atom+Function  
  ----- ------------  ---------------      ----- ------------  ---------------
    19     -0.363350  2 C  px                 5     -0.359947  1 C  py         
    58     -0.352941  4 Cl py                76     -0.301632  5 Cl px         
    77     -0.186155  5 Cl py                 4      0.185245  1 C  px         
    53      0.170285  4 Cl s                 72      0.160584  5 Cl s          

 Vector   25  Occ=2.000000E+00  E=-3.808653E-01
              MO Center=  3.4E-01, -3.4E-01,  6.6E-05, r^2= 4.7E+00
   Bfn.  Coefficient  Atom+Function         Bfn.  Coefficient  Atom+Function  
  ----- ------------  ---------------      ----- ------------  ---------------
    76     -0.419529  5 Cl px                58      0.335111  4 Cl py         
    38      0.318612  3 Cl px                20     -0.291636  2 C  py         
     5      0.210512  1 C  py                19     -0.206520  2 C  px         
    88      0.176433  6 H  s                  4      0.165538  1 C  px         
    73      0.164364  5 Cl px         

 Vector   26  Occ=2.000000E+00  E=-3.736267E-01
              MO Center= -3.0E-01,  1.0E-04, -7.0E-05, r^2= 3.1E+00
   Bfn.  Coefficient  Atom+Function         Bfn.  Coefficient  Atom+Function  
  ----- ------------  ---------------      ----- ------------  ---------------
     6     -0.423432  1 C  pz                59      0.355460  4 Cl pz         
    40      0.326294  3 Cl pz                21     -0.283758  2 C  pz         
    78      0.223082  5 Cl pz         

 Vector   27  Occ=2.000000E+00  E=-3.161351E-01
              MO Center=  1.2E+00, -3.0E-01,  2.1E-04, r^2= 4.1E+00
   Bfn.  Coefficient  Atom+Function         Bfn.  Coefficient  Atom+Function  
  ----- ------------  ---------------      ----- ------------  ---------------
    78     -0.635460  5 Cl pz                40      0.297348  3 Cl pz         
    81      0.258407  5 Cl pz                75      0.244409  5 Cl pz         
    59      0.239380  4 Cl pz                21      0.228895  2 C  pz         

 Vector   28  Occ=2.000000E+00  E=-3.092781E-01
              MO Center= -1.0E+00,  4.5E-01, -1.8E-04, r^2= 3.5E+00
   Bfn.  Coefficient  Atom+Function         Bfn.  Coefficient  Atom+Function  
  ----- ------------  ---------------      ----- ------------  ---------------
    57     -0.535916  4 Cl px                39      0.387545  3 Cl py         
    38     -0.341925  3 Cl px                60      0.223878  4 Cl px         
    54      0.205467  4 Cl px                42     -0.163867  3 Cl py         

 Vector   29  Occ=2.000000E+00  E=-2.974400E-01
              MO Center= -1.1E+00,  4.6E-01, -1.9E-04, r^2= 3.4E+00
   Bfn.  Coefficient  Atom+Function         Bfn.  Coefficient  Atom+Function  
  ----- ------------  ---------------      ----- ------------  ---------------
    59      0.582534  4 Cl pz                40     -0.552993  3 Cl pz         
    62     -0.256190  4 Cl pz                43      0.245194  3 Cl pz         
    56     -0.222611  4 Cl pz                37      0.211600  3 Cl pz         

 Vector   30  Occ=2.000000E+00  E=-2.896872E-01
              MO Center=  5.2E-01, -2.9E-01,  9.8E-05, r^2= 5.5E+00
   Bfn.  Coefficient  Atom+Function         Bfn.  Coefficient  Atom+Function  
  ----- ------------  ---------------      ----- ------------  ---------------
    77      0.553627  5 Cl py                39      0.445610  3 Cl py         
    57      0.288545  4 Cl px                80     -0.247986  5 Cl py         
    74     -0.211822  5 Cl py                42     -0.192907  3 Cl py         
    36     -0.169851  3 Cl py         

 Vector   31  Occ=2.000000E+00  E=-2.786983E-01
              MO Center=  3.5E-01,  1.5E-01,  5.7E-05, r^2= 5.5E+00
   Bfn.  Coefficient  Atom+Function         Bfn.  Coefficient  Atom+Function  
  ----- ------------  ---------------      ----- ------------  ---------------
    77      0.493798  5 Cl py                57     -0.479053  4 Cl px         
    39     -0.393512  3 Cl py                80     -0.218679  5 Cl py         
    60      0.207835  4 Cl px                74     -0.188306  5 Cl py         
    76     -0.187326  5 Cl px                54      0.181854  4 Cl px         
    42      0.172322  3 Cl py         

 Vector   32  Occ=2.000000E+00  E=-2.234042E-01
              MO Center=  2.0E-01, -2.7E-01,  1.9E-05, r^2= 3.9E+00
   Bfn.  Coefficient  Atom+Function         Bfn.  Coefficient  Atom+Function  
  ----- ------------  ---------------      ----- ------------  ---------------
    21      0.444474  2 C  pz                 6      0.421708  1 C  pz         
    78      0.389867  5 Cl pz                40      0.341581  3 Cl pz         
    59      0.299904  4 Cl pz                81     -0.221689  5 Cl pz         
    43     -0.193723  3 Cl pz                62     -0.179267  4 Cl pz         

 Vector   33  Occ=0.000000E+00  E=-5.859893E-02
              MO Center=  1.5E-01, -4.6E-01, -2.4E-04, r^2= 2.8E+00
   Bfn.  Coefficient  Atom+Function         Bfn.  Coefficient  Atom+Function  
  ----- ------------  ---------------      ----- ------------  ---------------
     6      0.648031  1 C  pz                24     -0.624845  2 C  pz         
     9      0.623336  1 C  pz                21     -0.594948  2 C  pz         
    81      0.236223  5 Cl pz                62     -0.234166  4 Cl pz         
    43     -0.224315  3 Cl pz                78     -0.196747  5 Cl pz         
    59      0.189128  4 Cl pz                40      0.160741  3 Cl pz         

 Vector   34  Occ=0.000000E+00  E=-5.311831E-02
              MO Center= -9.5E-01, -1.4E-01,  8.0E-05, r^2= 4.3E+00
   Bfn.  Coefficient  Atom+Function         Bfn.  Coefficient  Atom+Function  
  ----- ------------  ---------------      ----- ------------  ---------------
     3      1.358715  1 C  s                 34     -0.574812  3 Cl s          
    41     -0.556909  3 Cl px                18     -0.528717  2 C  s          
    38      0.450028  3 Cl px                 4     -0.426393  1 C  px         
    61      0.388518  4 Cl py                 2      0.338268  1 C  s          
    58     -0.291092  4 Cl py                 7     -0.286444  1 C  px         

 Vector   35  Occ=0.000000E+00  E=-3.877946E-02
              MO Center=  5.7E-01,  2.4E-01,  7.1E-05, r^2= 4.2E+00
   Bfn.  Coefficient  Atom+Function         Bfn.  Coefficient  Atom+Function  
  ----- ------------  ---------------      ----- ------------  ---------------
     3      0.619774  1 C  s                  5      0.539067  1 C  py         
    18      0.515859  2 C  s                 53     -0.514546  4 Cl s          
    61      0.504180  4 Cl py                19      0.459257  2 C  px         
    79      0.447249  5 Cl px                72     -0.433536  5 Cl s          
     8      0.406513  1 C  py                58     -0.399479  4 Cl py         

 Vector   36  Occ=0.000000E+00  E= 3.822554E-02
              MO Center=  4.3E-01, -6.3E-01,  8.3E-05, r^2= 5.3E+00
   Bfn.  Coefficient  Atom+Function         Bfn.  Coefficient  Atom+Function  
  ----- ------------  ---------------      ----- ------------  ---------------
    18     -1.523820  2 C  s                  7      0.822404  1 C  px         
    72      0.604449  5 Cl s                 34      0.585921  3 Cl s          
    79     -0.559604  5 Cl px                89      0.510017  6 H  s          
     4      0.474933  1 C  px                23     -0.445363  2 C  py         
     3      0.413159  1 C  s                  5      0.396496  1 C  py         

 Vector   37  Occ=0.000000E+00  E= 1.109300E-01
              MO Center=  5.2E-01, -7.5E-01,  8.9E-05, r^2= 7.7E+00
   Bfn.  Coefficient  Atom+Function         Bfn.  Coefficient  Atom+Function  
  ----- ------------  ---------------      ----- ------------  ---------------
    22     -1.739508  2 C  px                 3     -1.548030  1 C  s          
    18      1.511777  2 C  s                  7     -1.340426  1 C  px         
     8      1.212074  1 C  py                23      0.914774  2 C  py         
    72      0.780850  5 Cl s                 53     -0.722086  4 Cl s          
    34     -0.418654  3 Cl s                 61      0.381171  4 Cl py         

 Vector   38  Occ=0.000000E+00  E= 1.563126E-01
              MO Center=  1.2E-01, -1.1E+00,  1.3E-05, r^2= 5.7E+00
   Bfn.  Coefficient  Atom+Function         Bfn.  Coefficient  Atom+Function  
  ----- ------------  ---------------      ----- ------------  ---------------
    23      1.387359  2 C  py                22      1.111071  2 C  px         
    72     -0.855650  5 Cl s                 20     -0.561561  2 C  py         
    41      0.477634  3 Cl px                61      0.371162  4 Cl py         
    89      0.356038  6 H  s                 19     -0.355430  2 C  px         
    34      0.327239  3 Cl s                 79      0.298298  5 Cl px         

 Vector   39  Occ=0.000000E+00  E= 1.809109E-01
              MO Center= -3.0E-01,  2.6E-01, -1.3E-04, r^2= 6.2E+00
   Bfn.  Coefficient  Atom+Function         Bfn.  Coefficient  Atom+Function  
  ----- ------------  ---------------      ----- ------------  ---------------
     8     -3.299072  1 C  py                53      1.536356  4 Cl s          
    23      1.419193  2 C  py                18     -0.951208  2 C  s          
    34     -0.793234  3 Cl s                 22      0.786624  2 C  px         
    72     -0.556467  5 Cl s                 61     -0.534830  4 Cl py         
     5      0.504917  1 C  py                42      0.369485  3 Cl py         

 Vector   40  Occ=0.000000E+00  E= 1.886017E-01
              MO Center=  1.9E-01, -6.5E-01, -2.9E-05, r^2= 4.5E+00
   Bfn.  Coefficient  Atom+Function         Bfn.  Coefficient  Atom+Function  
  ----- ------------  ---------------      ----- ------------  ---------------
    24     -0.795412  2 C  pz                21      0.597892  2 C  pz         
     9     -0.540359  1 C  pz                 6      0.397527  1 C  pz         
    40     -0.214677  3 Cl pz                59     -0.192096  4 Cl pz         
    78     -0.180343  5 Cl pz         

 Vector   41  Occ=0.000000E+00  E= 2.166681E-01
              MO Center= -4.3E-01, -4.7E-01, -9.1E-05, r^2= 6.8E+00
   Bfn.  Coefficient  Atom+Function         Bfn.  Coefficient  Atom+Function  
  ----- ------------  ---------------      ----- ------------  ---------------
     7      2.997345  1 C  px                22     -2.081416  2 C  px         
    34      1.365295  3 Cl s                 18     -0.914175  2 C  s          
     3     -0.898814  1 C  s                 72      0.766680  5 Cl s          
     8      0.684812  1 C  py                60     -0.605672  4 Cl px         
    42      0.509223  3 Cl py                23     -0.480212  2 C  py         

 Vector   42  Occ=0.000000E+00  E= 2.295705E-01
              MO Center=  4.2E-01, -5.2E-01,  4.6E-05, r^2= 7.3E+00
   Bfn.  Coefficient  Atom+Function         Bfn.  Coefficient  Atom+Function  
  ----- ------------  ---------------      ----- ------------  ---------------
    23     -3.491203  2 C  py                89     -2.905032  6 H  s          
     8      1.890022  1 C  py                18      1.293296  2 C  s          
     7      1.063586  1 C  px                22     -0.951228  2 C  px         
    53     -0.919145  4 Cl s                 34      0.654244  3 Cl s          
    72      0.618879  5 Cl s                 61      0.565691  4 Cl py         

 Vector   43  Occ=0.000000E+00  E= 2.626022E-01
              MO Center= -4.4E-02, -4.5E-01, -3.2E-05, r^2= 5.5E+00
   Bfn.  Coefficient  Atom+Function         Bfn.  Coefficient  Atom+Function  
  ----- ------------  ---------------      ----- ------------  ---------------
     9     -1.875641  1 C  pz                24      1.691289  2 C  pz         
     6      0.593378  1 C  pz                21     -0.514966  2 C  pz         
    59     -0.292192  4 Cl pz                81     -0.208629  5 Cl pz         
    43      0.198206  3 Cl pz                40     -0.163239  3 Cl pz         

 Vector   44  Occ=0.000000E+00  E= 2.903626E-01
              MO Center=  4.4E-01, -2.7E-01,  1.1E-04, r^2= 9.3E+00
   Bfn.  Coefficient  Atom+Function         Bfn.  Coefficient  Atom+Function  
  ----- ------------  ---------------      ----- ------------  ---------------
    18      1.232687  2 C  s                  3     -1.012553  1 C  s          
    79      0.994091  5 Cl px                41      0.980532  3 Cl px         
    76      0.615848  5 Cl px                38      0.592707  3 Cl px         
    80      0.467185  5 Cl py                 7     -0.458333  1 C  px         
    60      0.425635  4 Cl px                72     -0.309605  5 Cl s          

 Vector   45  Occ=0.000000E+00  E= 3.027940E-01
              MO Center= -3.6E-01,  8.1E-01, -6.6E-05, r^2= 7.2E+00
   Bfn.  Coefficient  Atom+Function         Bfn.  Coefficient  Atom+Function  
  ----- ------------  ---------------      ----- ------------  ---------------
     3     -1.105653  1 C  s                 61     -1.076680  4 Cl py         
    58     -0.703259  4 Cl py                41      0.653973  3 Cl px         
    89     -0.518787  6 H  s                 18      0.470126  2 C  s          
    23     -0.407721  2 C  py                79     -0.406312  5 Cl px         
    39      0.384234  3 Cl py                80     -0.367528  5 Cl py         

 Vector   46  Occ=0.000000E+00  E= 3.295537E-01
              MO Center=  7.2E-01,  4.5E-01,  9.7E-05, r^2= 6.9E+00
   Bfn.  Coefficient  Atom+Function         Bfn.  Coefficient  Atom+Function  
  ----- ------------  ---------------      ----- ------------  ---------------
    23     -1.040498  2 C  py                60      0.941225  4 Cl px         
    89     -0.895101  6 H  s                 79     -0.823922  5 Cl px         
    57      0.667691  4 Cl px                80      0.614379  5 Cl py         
     7     -0.575764  1 C  px                76     -0.524605  5 Cl px         
    18      0.518014  2 C  s                 42     -0.425354  3 Cl py         

 Vector   47  Occ=0.000000E+00  E= 3.388694E-01
              MO Center=  3.3E-01, -4.6E-03,  8.7E-05, r^2= 7.7E+00
   Bfn.  Coefficient  Atom+Function         Bfn.  Coefficient  Atom+Function  
  ----- ------------  ---------------      ----- ------------  ---------------
    81     -0.917591  5 Cl pz                78     -0.718959  5 Cl pz         
    43      0.695672  3 Cl pz                62     -0.646626  4 Cl pz         
    40      0.599032  3 Cl pz                59     -0.541027  4 Cl pz         
    24      0.368974  2 C  pz                75      0.194374  5 Cl pz         
    37     -0.162357  3 Cl pz         

 Vector   48  Occ=0.000000E+00  E= 3.468881E-01
              MO Center= -5.5E-01, -4.1E-01, -4.7E-05, r^2= 5.0E+00
   Bfn.  Coefficient  Atom+Function         Bfn.  Coefficient  Atom+Function  
  ----- ------------  ---------------      ----- ------------  ---------------
     3     -0.948722  1 C  s                 42     -0.861871  3 Cl py         
     8      0.769751  1 C  py                53     -0.733402  4 Cl s          
    17      0.495661  2 C  s                 23      0.494200  2 C  py         
    39     -0.479723  3 Cl py                89      0.462257  6 H  s          
    80     -0.422947  5 Cl py                52      0.338494  4 Cl s          

 Vector   49  Occ=0.000000E+00  E= 3.611086E-01
              MO Center=  7.4E-01, -2.1E-01,  1.3E-04, r^2= 4.8E+00
   Bfn.  Coefficient  Atom+Function         Bfn.  Coefficient  Atom+Function  
  ----- ------------  ---------------      ----- ------------  ---------------
    80     -0.675893  5 Cl py                 3      0.594574  1 C  s          
    61      0.582280  4 Cl py                 2     -0.570619  1 C  s          
    77     -0.460659  5 Cl py                23      0.369665  2 C  py         
    58      0.368330  4 Cl py                19     -0.357123  2 C  px         
     4     -0.352232  1 C  px                18      0.348392  2 C  s          

 Vector   50  Occ=0.000000E+00  E= 3.771666E-01
              MO Center= -1.3E+00, -1.4E-01, -1.9E-04, r^2= 6.3E+00
   Bfn.  Coefficient  Atom+Function         Bfn.  Coefficient  Atom+Function  
  ----- ------------  ---------------      ----- ------------  ---------------
     9     -1.404229  1 C  pz                43      1.353585  3 Cl pz         
    62      0.948497  4 Cl pz                40      0.836740  3 Cl pz         
    59      0.507896  4 Cl pz                24      0.342427  2 C  pz         
    81      0.316064  5 Cl pz                 6      0.271260  1 C  pz         
    78      0.262408  5 Cl pz                37     -0.220344  3 Cl pz         

 Vector   51  Occ=0.000000E+00  E= 3.808804E-01
              MO Center= -1.0E+00, -5.4E-01, -1.9E-04, r^2= 5.7E+00
   Bfn.  Coefficient  Atom+Function         Bfn.  Coefficient  Atom+Function  
  ----- ------------  ---------------      ----- ------------  ---------------
    42      1.115556  3 Cl py                 8     -1.016944  1 C  py         
    18     -0.832399  2 C  s                 23      0.792340  2 C  py         
    39      0.780943  3 Cl py                89      0.760551  6 H  s          
     3     -0.672149  1 C  s                 60      0.511731  4 Cl px         
    34     -0.501992  3 Cl s                 20      0.340911  2 C  py         

 Vector   52  Occ=0.000000E+00  E= 3.917182E-01
              MO Center=  9.3E-01,  5.9E-01,  1.3E-04, r^2= 6.8E+00
   Bfn.  Coefficient  Atom+Function         Bfn.  Coefficient  Atom+Function  
  ----- ------------  ---------------      ----- ------------  ---------------
    81      1.126254  5 Cl pz                62     -1.086641  4 Cl pz         
    24     -0.922341  2 C  pz                 9      0.877377  1 C  pz         
    78      0.748870  5 Cl pz                59     -0.717079  4 Cl pz         
    40      0.243362  3 Cl pz                75     -0.197506  5 Cl pz         
    67     -0.189109  4 Cl dyz               56      0.188537  4 Cl pz         

 Vector   53  Occ=0.000000E+00  E= 4.111546E-01
              MO Center=  5.9E-01,  2.0E-01,  8.4E-05, r^2= 6.2E+00
   Bfn.  Coefficient  Atom+Function         Bfn.  Coefficient  Atom+Function  
  ----- ------------  ---------------      ----- ------------  ---------------
    23     -1.119680  2 C  py                80      1.040548  5 Cl py         
     7      0.940398  1 C  px                60     -0.930431  4 Cl px         
    89     -0.862465  6 H  s                 18      0.853910  2 C  s          
    77      0.685156  5 Cl py                57     -0.606808  4 Cl px         
    34      0.524152  3 Cl s                 19     -0.408114  2 C  px         

 Vector   54  Occ=0.000000E+00  E= 4.625876E-01
              MO Center=  1.3E-02, -2.1E-01, -2.4E-05, r^2= 7.1E+00
   Bfn.  Coefficient  Atom+Function         Bfn.  Coefficient  Atom+Function  
  ----- ------------  ---------------      ----- ------------  ---------------
    23     -2.855056  2 C  py                89     -2.327367  6 H  s          
     8      2.097975  1 C  py                18      1.825530  2 C  s          
    22     -1.811908  2 C  px                 7      1.579340  1 C  px         
    72      0.960223  5 Cl s                 34      0.872250  3 Cl s          
    41     -0.640810  3 Cl px                38     -0.613824  3 Cl px         

 Vector   55  Occ=0.000000E+00  E= 6.538438E-01
              MO Center= -6.7E-01,  2.6E-01, -1.1E-04, r^2= 3.4E+00
   Bfn.  Coefficient  Atom+Function         Bfn.  Coefficient  Atom+Function  
  ----- ------------  ---------------      ----- ------------  ---------------
    67     -0.983758  4 Cl dyz               46     -0.885567  3 Cl dxz        
    14      0.569412  1 C  dyz               84     -0.440884  5 Cl dxz        
    12      0.339635  1 C  dxz               48     -0.248955  3 Cl dyz        
    27      0.228774  2 C  dxz               29      0.160637  2 C  dyz        


 center of mass
 --------------
 x =  -0.00940606 y =   0.03563520 z =  -0.00000226

 moments of inertia (a.u.)
 ------------------
         485.619892866209          -4.802683739175          -0.191482623359
          -4.802683739175        1235.085508017875           0.016380550691
          -0.191482623359           0.016380550691        1720.705339946827

     Multipole analysis of the density
     ---------------------------------

     L   x y z        total         alpha         beta         nuclear
     -   - - -        -----         -----         ----         -------
     0   0 0 0      0.000000    -32.000000    -32.000000     64.000000

     1   1 0 0     -0.022884     -0.011432     -0.011432     -0.000021
     1   0 1 0     -0.508349     -0.254167     -0.254167     -0.000015
     1   0 0 1      0.000025      0.000013      0.000013     -0.000002

     2   2 0 0    -37.745479   -319.544155   -319.544155    601.342831
     2   1 1 0      0.042159      0.021141      0.021141     -0.000122
     2   1 0 1     -0.000023     -0.046664     -0.046664      0.093306
     2   0 2 0    -34.078036   -139.021325   -139.021325    243.964615
     2   0 1 1     -0.000122      0.004219      0.004219     -0.008560
     2   0 0 2    -37.607581    -18.803798    -18.803798      0.000015


------------------------------------------------------------
EAF file 0: "./trichloro.aoints.0" size=73400320 bytes
------------------------------------------------------------
               write      read    awrite     aread      wait
               -----      ----    ------     -----      ----
     calls:      140        15         0      2085      2085
   data(b): 7.34e+07  7.86e+06  0.00e+00  1.09e+09
   time(s): 8.26e+00  8.87e-02  0.00e+00  1.17e+01  5.34e-03
rate(mb/s): 8.89e+00  8.87e+01  0.00e+00* 9.32e+01*
------------------------------------------------------------
* = Effective rate.  Full wait time used for read and write.


 Parallel integral file used     140 records with       0 large values


 Task  times  cpu:      257.4s     wall:      278.7s


                                NWChem Input Module
                                -------------------


 Summary of allocated global arrays
-----------------------------------
  No active global arrays



                         GA Statistics for process    0
                         ------------------------------

       create   destroy   get      put      acc     scatter   gather  read&inc
calls:  238      238     5.83e+04 2.33e+04 5.36e+04    0        0        0     
bytes total:             1.25e+08 1.55e+07 1.14e+08 0.00e+00 0.00e+00 0.00e+00
bytes remote:            0.00e+00 0.00e+00 0.00e+00 0.00e+00 0.00e+00 0.00e+00
Max memory consumed for GA by this process: 2505344 bytes

MA_summarize_allocated_blocks: starting scan ...
MA_summarize_allocated_blocks: scan completed: 0 heap blocks, 0 stack blocks
MA usage statistics:

	allocation statistics:
					      heap	     stack
					      ----	     -----
	current number of blocks	         0	         0
	maximum number of blocks	        53	        44
	current total bytes		         0	         0
	maximum total bytes		  11097460	  14491228
	maximum total K-bytes		     11098	     14492
	maximum total M-bytes		        12	        15



                                  ACKNOWLEDGEMENT
                                  ---------------

            Please use the following acknowledgement where appropriate 
            for results obtained with NWChem:

            High Performance Computational Chemistry Group, "NWChem, A
            Computational Chemistry Package for Parallel Computers, 
            Version 4.0.1" (2001), Pacific Northwest National Laboratory,
            Richland, Washington 99352-0999, USA.


                                     CITATION
                                     --------

            Please use the following citation when publishing results
            obtained with NWChem:

            R. J. Harrison, J. A. Nichols, T. P. Straatsma, M. Dupuis, E. J. Bylaska,
            G. I. Fann, T. L. Windus, E. Apra, J. Anchell, D. Bernholdt, P. Borowski,
            T. Clark, D. Clerc, H. Dachsel, B. de Jong, M. Deegan, K. Dyall, D. Elwood,
            H. Fruchtl, E. Glendenning, M. Gutowski, A. Hess, J. Jaffe, B. Johnson, J. Ju,
            R. Kendall, R. Kobayashi, R, Kutteh, Z. Lin, R. Littlefield, X. Long, B. Meng,
            J. Nieplocha, S. Niu, M. Rosing, G. Sandrone, M. Stave, H. Taylor, G. Thomas,
            J. van Lenthe, K. Wolinski, A. Wong, and Z. Zhang,
            "NWChem, A Computational Chemistry Package for Parallel Computers, 
            Version 4.0.1" (2001),
                      Pacific Northwest National Laboratory,
                      Richland, Washington 99352-0999, USA.


                                    REFERENCES
                                    ----------

            Where appropriate, please cite the following reference(s) 
            when publishing results obtained with NWChem:


     1. D. E. Bernholdt, E. Apra, H. A. Fruchtl, M.F. Guest, R. J. Harrison, 
        R. A. Kendall, R. A. Kutteh, X. Long, J. B. Nicholas, J. A. Nichols, 
        H. L. Taylor, A. T. Wong, G. I. Fann, R. J. Littlefield and J. Nieplocha,
        "Parallel Computational Chemistry Made Easier: The Development of NWChem,"
        Int. J. Quantum Chem. Symposium  29, 475-483 (1995).



 Total times  cpu:      259.5s     wall:      280.9s
