 argument  1 = tce_2emet_rohf.nw



============================== echo of input deck ==============================
echo

start tce_2emet_rohf

memory stack 900 mb heap 100 mb global 900 mb

permanent_dir /tmp
scratch_dir /tmp

geometry units angstrom noprint
 # Aces CCSD(T)/aug-cc-pVQZ(ae) optimized geometry
 zmatrix
  O
  H 1 R
  H 1 R 2 A
  variables
   R   0.9575091749
   A 104.4784445984
  end
end

charge +1

basis spherical
  * library cc-pVDZ
end

scf
  doublet
  rohf
  thresh 1e-9
  semidirect memsize 50000000 filesize 0
end

tce
  freeze atomic
  scf
  ccsd
  thresh 1e-7
  io ga
  2eorb
  2emet 1
  tilesize 20
  attilesize 20
end

task tce energy

tce
  freeze atomic
  scf
  ccsd
  thresh 1e-7
  io ga
  2eorb
  2emet 2
  tilesize 20
  attilesize 20
end

task tce energy

tce
  freeze atomic
  scf
  ccsd
  thresh 1e-7
  io ga
  2eorb
  2emet 3
  tilesize 20
  attilesize 20
end

task tce energy

tce
  freeze atomic
  scf
  ccsd
  thresh 1e-7
  io ga
  2eorb
  2emet 4
  tilesize 20
  attilesize 20
end

task tce energy

tce
  freeze atomic
  scf
  ccsd
  thresh 1e-7
  io ga
  2eorb
  2emet 5
  tilesize 20
  attilesize 20
end

task tce energy

tce
  freeze atomic
  scf
  ccsd
  thresh 1e-7
  io ga
  2eorb
  2emet 6
  tilesize 20
  attilesize 20
end

task tce energy

tce
  freeze atomic
  scf
  ccsd
  thresh 1e-7
  io ga
  2eorb
  2emet 13
  tilesize 20
  attilesize 20
end

task tce energy

tce
  freeze atomic
  scf
  ccsd
  thresh 1e-7
  io ga
  2eorb
  2emet 14
  tilesize 20
  attilesize 20
end

task tce energy
================================================================================


                                         
                                         


              Northwest Computational Chemistry Package (NWChem) 6.1
              ------------------------------------------------------


                    Environmental Molecular Sciences Laboratory
                       Pacific Northwest National Laboratory
                                Richland, WA 99352

                              Copyright (c) 1994-2010
                       Pacific Northwest National Laboratory
                            Battelle Memorial Institute

             NWChem is an open-source computational chemistry package
                        distributed under the terms of the
                      Educational Community License (ECL) 2.0
             A copy of the license is included with this distribution
                              in the LICENSE.TXT file

                                  ACKNOWLEDGMENT
                                  --------------

            This software and its documentation were developed at the
            EMSL at Pacific Northwest National Laboratory, a multiprogram
            national laboratory, operated for the U.S. Department of Energy
            by Battelle under Contract Number DE-AC05-76RL01830. Support
            for this work was provided by the Department of Energy Office
            of Biological and Environmental Research, Office of Basic
            Energy Sciences, and the Office of Advanced Scientific Computing.


           Job information
           ---------------

    hostname      = megatron
    program       = /software/nwchem/nwchem-trunk/bin/LINUX64/nwchem
    date          = Wed Apr  4 08:18:26 2012

    compiled      = Wed_Apr_04_07:26:30_2012
    source        = /software/nwchem/nwchem-trunk
    nwchem branch = Development
    input         = tce_2emet_rohf.nw
    prefix        = tce_2emet_rohf.
    data base     = /tmp/tce_2emet_rohf.db
    status        = startup
    nproc         =        1
    time left     =     -1s



           Memory information
           ------------------

    heap     =   13107201 doubles =    100.0 Mbytes
    stack    =  117964801 doubles =    900.0 Mbytes
    global   =  117964800 doubles =    900.0 Mbytes (distinct from heap & stack)
    total    =  249036802 doubles =   1900.0 Mbytes
    verify   = yes
    hardfail = no 


           Directory information
           ---------------------

  0 permanent = /tmp
  0 scratch   = /tmp




                                NWChem Input Module
                                -------------------


 C2V symmetry detected


 Summary of "ao basis" -> "" (spherical)
 ------------------------------------------------------------------------------
       Tag                 Description            Shells   Functions and Types
 ---------------- ------------------------------  ------  ---------------------
 *                          cc-pVDZ                   on all atoms 


                      Basis "ao basis" -> "ao basis" (spherical)
                      -----
  O (Oxygen)
  ----------
            Exponent  Coefficients 
       -------------- ---------------------------------------------------------
  1 S  1.17200000E+04  0.000710
  1 S  1.75900000E+03  0.005470
  1 S  4.00800000E+02  0.027837
  1 S  1.13700000E+02  0.104800
  1 S  3.70300000E+01  0.283062
  1 S  1.32700000E+01  0.448719
  1 S  5.02500000E+00  0.270952
  1 S  1.01300000E+00  0.015458

  2 S  1.17200000E+04 -0.000160
  2 S  1.75900000E+03 -0.001263
  2 S  4.00800000E+02 -0.006267
  2 S  1.13700000E+02 -0.025716
  2 S  3.70300000E+01 -0.070924
  2 S  1.32700000E+01 -0.165411
  2 S  5.02500000E+00 -0.116955
  2 S  1.01300000E+00  0.557368

  3 S  3.02300000E-01  1.000000

  4 P  1.77000000E+01  0.043018
  4 P  3.85400000E+00  0.228913
  4 P  1.04600000E+00  0.508728

  5 P  2.75300000E-01  1.000000

  6 D  1.18500000E+00  1.000000

  H (Hydrogen)
  ------------
            Exponent  Coefficients 
       -------------- ---------------------------------------------------------
  1 S  1.30100000E+01  0.019685
  1 S  1.96200000E+00  0.137977
  1 S  4.44600000E-01  0.478148

  2 S  1.22000000E-01  1.000000

  3 P  7.27000000E-01  1.000000



 Summary of "ao basis" -> "ao basis" (spherical)
 ------------------------------------------------------------------------------
       Tag                 Description            Shells   Functions and Types
 ---------------- ------------------------------  ------  ---------------------
 O                          cc-pVDZ                  6       14   3s2p1d
 H                          cc-pVDZ                  3        5   2s1p


                                 NWChem SCF Module
                                 -----------------



  ao basis        = "ao basis"
  functions       =    24
  atoms           =     3
  closed shells   =     4
  open shells     =     1
  charge          =   1.00
  wavefunction    = ROHF
  input vectors   = atomic
  output vectors  = /tmp/tce_2emet_rohf.movecs
  use symmetry    = T
  symmetry adapt  = T


 Summary of "ao basis" -> "ao basis" (spherical)
 ------------------------------------------------------------------------------
       Tag                 Description            Shells   Functions and Types
 ---------------- ------------------------------  ------  ---------------------
 O                          cc-pVDZ                  6       14   3s2p1d
 H                          cc-pVDZ                  3        5   2s1p


      Symmetry analysis of basis
      --------------------------

        a1         11
        a2          2
        b1          7
        b2          4


 Forming initial guess at       0.0s


      Superposition of Atomic Density Guess
      -------------------------------------

 Sum of atomic energies:         -75.76222910

 Renormalizing density from      10.00 to      9

 #quartets = 1.953D+03 #integrals = 1.482D+04 #direct =  0.0% #cached =100.0%


 Integral file          = /tmp/tce_2emet_rohf.aoints.0
 Record size in doubles =  65536        No. of integs per rec  =  43688
 Max. records in memory =    761        Max. records in file   =      0
 No. of bits per label  =      8        No. of bits per value  =     64


      Non-variational initial energy
      ------------------------------

 Total energy =     -70.712544
 1-e energy   =    -109.592732
 2-e energy   =      29.688093
 HOMO         =      -1.166558
 LUMO         =      -0.299765


      Symmetry analysis of molecular orbitals - initial
      -------------------------------------------------

  Numbering of irreducible representations: 

     1 a1          2 a2          3 b1          4 b2      

  Orbital symmetries:

     1 a1          2 a1          3 b1          4 a1          5 b2      
     6 a1          7 b1          8 b1          9 a1         10 b2      
    11 a1         12 b1         13 a1         14 a2         15 b2      


 Starting SCF solution at       0.1s



 ----------------------------------------------
         Quadratically convergent ROHF

 Convergence threshold     :          1.000E-09
 Maximum no. of iterations :           30
 Final Fock-matrix accuracy:          1.000E-11
 ----------------------------------------------


              iter       energy          gnorm     gmax       time
             ----- ------------------- --------- --------- --------
                 1      -75.4902830639  1.71D+00  6.48D-01      0.1
                 2      -75.6191482134  3.44D-01  1.79D-01      0.1
                 3      -75.6266978679  1.01D-01  4.90D-02      0.1
                 4      -75.6273246935  4.19D-03  1.95D-03      0.2
                 5      -75.6273260852  6.01D-06  3.29D-06      0.2
                 6      -75.6273260852  9.63D-11  4.77D-11      0.2


       Final ROHF results 
       ------------------ 

         Total SCF energy =    -75.627326085196
      One-electron energy =   -118.069266056748
      Two-electron energy =     33.249845332796
 Nuclear repulsion energy =      9.192094638757

        Time for solution =      0.0s



       Symmetry analysis of molecular orbitals - final
       -----------------------------------------------

  Numbering of irreducible representations: 

     1 a1          2 a2          3 b1          4 b2      

  Orbital symmetries:

     1 a1          2 a1          3 b1          4 a1          5 b2      
     6 a1          7 b1          8 b1          9 a1         10 a1      
    11 b2         12 b1         13 a1         14 a2         15 b2      

             Final eigenvalues
             -----------------

              1      
    1  -21.1186
    2   -1.8342
    3   -1.1995
    4   -1.0724
    5   -0.6991
    6   -0.1349
    7   -0.0544
    8    0.3921
    9    0.4552
   10    0.7252
   11    0.7490
   12    0.8356
   13    1.0297
   14    1.0550
   15    1.2539

                       ROHF Final Molecular Orbital Analysis
                       -------------------------------------

 Vector    2  Occ=2.000000D+00  E=-1.834175D+00  Symmetry=a1
              MO Center=  1.5D-16,  1.1D-17, -5.2D-02, r^2= 4.6D-01
   Bfn.  Coefficient  Atom+Function         Bfn.  Coefficient  Atom+Function  
  ----- ------------  ---------------      ----- ------------  ---------------
     2      0.482889  1 O  s                  3      0.357097  1 O  s          
    15      0.188626  2 H  s                 20      0.188626  3 H  s          

 Vector    3  Occ=2.000000D+00  E=-1.199511D+00  Symmetry=b1
              MO Center= -6.0D-16,  4.5D-17, -6.5D-02, r^2= 6.4D-01
   Bfn.  Coefficient  Atom+Function         Bfn.  Coefficient  Atom+Function  
  ----- ------------  ---------------      ----- ------------  ---------------
     4      0.555964  1 O  px                15      0.309052  2 H  s          
    20     -0.309052  3 H  s                  7      0.222217  1 O  px         

 Vector    4  Occ=2.000000D+00  E=-1.072428D+00  Symmetry=a1
              MO Center=  1.2D-17,  1.5D-34,  1.9D-01, r^2= 5.7D-01
   Bfn.  Coefficient  Atom+Function         Bfn.  Coefficient  Atom+Function  
  ----- ------------  ---------------      ----- ------------  ---------------
     6      0.611435  1 O  pz                 9      0.318696  1 O  pz         
     3      0.302437  1 O  s                 15     -0.192324  2 H  s          
    20     -0.192324  3 H  s                  2      0.164568  1 O  s          

 Vector    5  Occ=1.000000D+00  E=-6.991360D-01  Symmetry=b2
              MO Center=  8.2D-17, -1.9D-16,  9.6D-02, r^2= 5.0D-01
   Bfn.  Coefficient  Atom+Function         Bfn.  Coefficient  Atom+Function  
  ----- ------------  ---------------      ----- ------------  ---------------
     5      0.719678  1 O  py                 8      0.401109  1 O  py         

 Vector    6  Occ=0.000000D+00  E=-1.348578D-01  Symmetry=a1
              MO Center= -1.5D-16,  8.3D-17, -6.2D-01, r^2= 2.7D+00
   Bfn.  Coefficient  Atom+Function         Bfn.  Coefficient  Atom+Function  
  ----- ------------  ---------------      ----- ------------  ---------------
     3      0.870124  1 O  s                 16     -0.758694  2 H  s          
    21     -0.758694  3 H  s                  9     -0.268254  1 O  pz         
     6     -0.207111  1 O  pz         

 Vector    7  Occ=0.000000D+00  E=-5.441590D-02  Symmetry=b1
              MO Center= -2.4D-15, -9.6D-17, -6.0D-01, r^2= 3.2D+00
   Bfn.  Coefficient  Atom+Function         Bfn.  Coefficient  Atom+Function  
  ----- ------------  ---------------      ----- ------------  ---------------
    16     -1.289230  2 H  s                 21      1.289230  3 H  s          
     7      0.582326  1 O  px                 4      0.326255  1 O  px         
    15     -0.155938  2 H  s                 20      0.155938  3 H  s          

 Vector    8  Occ=0.000000D+00  E= 3.921119D-01  Symmetry=b1
              MO Center= -1.6D-14,  4.5D-17, -2.7D-01, r^2= 2.0D+00
   Bfn.  Coefficient  Atom+Function         Bfn.  Coefficient  Atom+Function  
  ----- ------------  ---------------      ----- ------------  ---------------
    15     -0.946480  2 H  s                 20      0.946480  3 H  s          
    16      0.857284  2 H  s                 21     -0.857284  3 H  s          
     7      0.370429  1 O  px                 4      0.247313  1 O  px         

 Vector    9  Occ=0.000000D+00  E= 4.552062D-01  Symmetry=a1
              MO Center=  1.3D-14,  1.2D-17, -4.6D-01, r^2= 1.8D+00
   Bfn.  Coefficient  Atom+Function         Bfn.  Coefficient  Atom+Function  
  ----- ------------  ---------------      ----- ------------  ---------------
    15      0.800379  2 H  s                 20      0.800379  3 H  s          
    16     -0.612177  2 H  s                 21     -0.612177  3 H  s          
     6      0.344482  1 O  pz                 3      0.336273  1 O  s          
    17      0.264344  2 H  px                22     -0.264344  3 H  px         
     2     -0.233486  1 O  s          

 Vector   10  Occ=0.000000D+00  E= 7.251907D-01  Symmetry=a1
              MO Center=  9.0D-16,  2.1D-17,  1.4D-01, r^2= 1.3D+00
   Bfn.  Coefficient  Atom+Function         Bfn.  Coefficient  Atom+Function  
  ----- ------------  ---------------      ----- ------------  ---------------
     9      1.263767  1 O  pz                 6     -0.719001  1 O  pz         
     3     -0.670717  1 O  s                 15      0.530578  2 H  s          
    20      0.530578  3 H  s                 19      0.245485  2 H  pz         
    24      0.245485  3 H  pz         

 Vector   11  Occ=0.000000D+00  E= 7.489856D-01  Symmetry=b2
              MO Center=  3.6D-17, -5.4D-17,  1.1D-01, r^2= 1.2D+00
   Bfn.  Coefficient  Atom+Function         Bfn.  Coefficient  Atom+Function  
  ----- ------------  ---------------      ----- ------------  ---------------
     8      1.059110  1 O  py                 5     -0.904113  1 O  py         

 Vector   12  Occ=0.000000D+00  E= 8.355617D-01  Symmetry=b1
              MO Center=  6.1D-16,  2.4D-32,  1.1D-01, r^2= 1.9D+00
   Bfn.  Coefficient  Atom+Function         Bfn.  Coefficient  Atom+Function  
  ----- ------------  ---------------      ----- ------------  ---------------
     7      1.784949  1 O  px                16     -0.899673  2 H  s          
    21      0.899673  3 H  s                  4     -0.722194  1 O  px         
    15     -0.346595  2 H  s                 20      0.346595  3 H  s          
    17      0.275623  2 H  px                22      0.275623  3 H  px         
    19     -0.153801  2 H  pz                24      0.153801  3 H  pz         

 Vector   13  Occ=0.000000D+00  E= 1.029734D+00  Symmetry=a1
              MO Center= -4.4D-16,  2.2D-17, -3.8D-02, r^2= 1.4D+00
   Bfn.  Coefficient  Atom+Function         Bfn.  Coefficient  Atom+Function  
  ----- ------------  ---------------      ----- ------------  ---------------
     9      0.732622  1 O  pz                 3      0.581415  1 O  s          
     2     -0.568491  1 O  s                 19     -0.527721  2 H  pz         
    24     -0.527721  3 H  pz                15      0.334264  2 H  s          
    20      0.334264  3 H  s                 17     -0.322390  2 H  px         
    22      0.322390  3 H  px                16     -0.235567  2 H  s          

 Vector   14  Occ=0.000000D+00  E= 1.055026D+00  Symmetry=a2
              MO Center= -7.2D-15, -2.3D-17, -4.2D-01, r^2= 1.0D+00
   Bfn.  Coefficient  Atom+Function         Bfn.  Coefficient  Atom+Function  
  ----- ------------  ---------------      ----- ------------  ---------------
    18     -0.678398  2 H  py                23      0.678398  3 H  py         
    10     -0.151648  1 O  d -2       

 Vector   15  Occ=0.000000D+00  E= 1.253917D+00  Symmetry=b2
              MO Center=  8.8D-15,  1.1D-16, -2.8D-01, r^2= 1.2D+00
   Bfn.  Coefficient  Atom+Function         Bfn.  Coefficient  Atom+Function  
  ----- ------------  ---------------      ----- ------------  ---------------
    18      0.758107  2 H  py                23      0.758107  3 H  py         
     8     -0.638206  1 O  py                11     -0.183543  1 O  d -1       


 center of mass
 --------------
 x =   0.00000000 y =   0.00000000 z =   0.09760123

 moments of inertia (a.u.)
 ------------------
           2.197735433878           0.000000000000           0.000000000000
           0.000000000000           6.322357628834           0.000000000000
           0.000000000000           0.000000000000           4.124622194955

  Mulliken analysis of the total density
  --------------------------------------

    Atom       Charge   Shell Charges
 -----------   ------   -------------------------------------------------------
    1 O    8     7.58   2.00  0.92  0.77  2.69  1.19  0.01
    2 H    1     0.71   0.62  0.00  0.09
    3 H    1     0.71   0.62  0.00  0.09

 Mulliken analysis of the open-shell density
 -------------------------------------------

    Atom       Charge   Shell Charges
 -----------   ------   -------------------------------------------------------
    1 O    8     0.98  -0.00  0.00  0.00  0.67  0.31  0.00
    2 H    1     0.01  -0.00 -0.00  0.01
    3 H    1     0.01   0.00  0.00  0.01

       Multipole analysis of the density wrt the origin
       ------------------------------------------------

     L   x y z        total         open         nuclear
     -   - - -        -----         ----         -------
     0   0 0 0      1.000000     -1.000000     10.000000

     1   1 0 0      0.000000     -0.000000      0.000000
     1   0 1 0      0.000000      0.000000      0.000000
     1   0 0 1     -0.892741     -0.181351      0.000000

     2   2 0 0     -1.557194     -0.370545      4.092598
     2   1 1 0      0.000000     -0.000000     -0.000000
     2   1 0 1      0.000000     -0.000000      0.000000
     2   0 2 0     -3.465038     -1.040250      0.000000
     2   0 1 1     -0.000000     -0.000000     -0.000000
     2   0 0 2     -3.165649     -0.392794      1.964381


 Parallel integral file used       1 records with       0 large values

                   NWChem Extensible Many-Electron Theory Module
                   ---------------------------------------------

              ======================================================
                   This portion of the program was automatically
                  generated by a Tensor Contraction Engine (TCE).
                  The development of this portion of the program
                 and TCE was supported by US Department of Energy,
                Office of Science, Office of Basic Energy Science.
                      TCE is a product of Battelle and PNNL.
              Please cite: S.Hirata, J.Phys.Chem.A 107, 9887 (2003).
              ======================================================

            General Information
            -------------------
      Number of processors :     1
         Wavefunction type : Restricted open-shell Hartree-Fock
          No. of electrons :     9
           Alpha electrons :     5
            Beta electrons :     4
           No. of orbitals :    48
            Alpha orbitals :    24
             Beta orbitals :    24
        Alpha frozen cores :     1
         Beta frozen cores :     1
     Alpha frozen virtuals :     0
      Beta frozen virtuals :     0
         Spin multiplicity : doublet 
    Number of AO functions :    24
       Number of AO shells :    12
        Use of symmetry is : on 
      Symmetry adaption is : on 
         Schwarz screening : 0.10D-09

          Correlation Information
          -----------------------
          Calculation type : Coupled-cluster singles & doubles                           
   Perturbative correction : none                                                        
            Max iterations :      100
        Residual threshold : 0.10D-06
     T(0) DIIS level shift : 0.00D+00
     L(0) DIIS level shift : 0.00D+00
     T(1) DIIS level shift : 0.00D+00
     L(1) DIIS level shift : 0.00D+00
     T(R) DIIS level shift : 0.00D+00
     T(I) DIIS level shift : 0.00D+00
   CC-T/L Amplitude update :  5-th order DIIS
                I/O scheme : Global Array Library
        L-threshold : 0.10D-06
        EOM-threshold : 0.10D-06
 no EOMCCSD initial starts read in
 TCE RESTART OPTIONS
 READ_INT:   F
 WRITE_INT:  F
 READ_TA:    F
 WRITE_TA:   F
 READ_XA:    F
 WRITE_XA:   F
 READ_IN3:   F
 WRITE_IN3:  F

            Memory Information
            ------------------
          Available GA space size is     117963648 doubles
          Available MA space size is     131070152 doubles

 Maximum block size supplied by input
 Maximum block size        20 doubles

 tile_dim =      8

 Block   Spin    Irrep     Size     Offset   Alpha
 -------------------------------------------------
   1    alpha     a1     2 doubles       0       1
   2    alpha     b1     1 doubles       2       2
   3    alpha     b2     1 doubles       3       3
   4    beta      a1     2 doubles       4       4
   5    beta      b1     1 doubles       6       5
   6    alpha     a1     8 doubles       7       6
   7    alpha     a2     2 doubles      15       7
   8    alpha     b1     6 doubles      17       8
   9    alpha     b2     3 doubles      23       9
  10    beta      a1     8 doubles      26      10
  11    beta      a2     2 doubles      34      11
  12    beta      b1     6 doubles      36      12
  13    beta      b2     1 doubles      42      13
  14    beta      b2     3 doubles      43      14

 Global array virtual files algorithm will be used

 Parallel file system coherency ......... OK

 #quartets = 3.081D+03 #integrals = 2.434D+04 #direct =  0.0% #cached =100.0%


 Integral file          = /tmp/tce_2emet_rohf.aoints.0
 Record size in doubles =  65536        No. of integs per rec  =  43688
 Max. records in memory =    761        Max. records in file   =      0
 No. of bits per label  =      8        No. of bits per value  =     64


 Fock matrix recomputed
 1-e file size   =              338
 1-e file name   = /tmp/tce_2emet_rohf.
 Cpu & wall time / sec            0.1            0.1
 4-electron integrals stored in orbital form

 v2    file size   =            20937
 4-index algorithm nr.   1 is used
 imaxsize =       20
 imaxsize ichop =        0
 v2int file size   =            88872
 Cpu & wall time / sec            0.3            0.3
 do_pt =  F
 do_lam_pt =  F
 do_cr_pt =  F
 do_lcr_pt =  F
 do_2t_pt =  F
 T1-number-of-tasks                    5

 t1 file size   =               47
 t1 file name   = /tmp/tce_2emet_rohf.
 t1 file handle =       -997
 T2-number-of-boxes                   63

 t2 file size   =             2843
 t2 file name   = /tmp/tce_2emet_rohf.
 t2 file handle =       -995

 CCSD iterations
 -----------------------------------------------------------------
 Iter          Residuum       Correlation     Cpu    Wall    V2*C2
 -----------------------------------------------------------------
    1   0.1009164262999  -0.1600359538097     0.1     0.1     0.0
    2   0.0273735570494  -0.1688311913463     0.1     0.1     0.0
    3   0.0097863533262  -0.1711159983762     0.1     0.1     0.0
    4   0.0039049529791  -0.1717539986400     0.1     0.1     0.0
    5   0.0016393254432  -0.1719833017643     0.1     0.1     0.0
 MICROCYCLE DIIS UPDATE:                    5                    5
    6   0.0001727346053  -0.1721298575274     0.1     0.1     0.0
    7   0.0000719997564  -0.1721312504527     0.1     0.1     0.0
    8   0.0000326336416  -0.1721319823886     0.1     0.1     0.0
    9   0.0000172501414  -0.1721320578137     0.1     0.1     0.0
   10   0.0000090459278  -0.1721322108093     0.1     0.1     0.0
 MICROCYCLE DIIS UPDATE:                   10                    5
   11   0.0000010464673  -0.1721323971013     0.1     0.1     0.0
   12   0.0000003409317  -0.1721323802694     0.1     0.1     0.0
   13   0.0000001625235  -0.1721323864698     0.1     0.1     0.0
   14   0.0000000822801  -0.1721323866659     0.1     0.1     0.0
 -----------------------------------------------------------------
 Iterations converged
 CCSD correlation energy / hartree =        -0.172132386665942
 CCSD total energy / hartree       =       -75.799458471861485

 Singles contributions

 Doubles contributions

 Parallel integral file used       1 records with       0 large values


 Task  times  cpu:        2.4s     wall:        2.6s


                                NWChem Input Module
                                -------------------


                                 NWChem SCF Module
                                 -----------------



  ao basis        = "ao basis"
  functions       =    24
  atoms           =     3
  closed shells   =     4
  open shells     =     1
  charge          =   1.00
  wavefunction    = ROHF
  input vectors   = /tmp/tce_2emet_rohf.movecs
  output vectors  = /tmp/tce_2emet_rohf.movecs
  use symmetry    = T
  symmetry adapt  = T


 Summary of "ao basis" -> "ao basis" (spherical)
 ------------------------------------------------------------------------------
       Tag                 Description            Shells   Functions and Types
 ---------------- ------------------------------  ------  ---------------------
 O                          cc-pVDZ                  6       14   3s2p1d
 H                          cc-pVDZ                  3        5   2s1p


      Symmetry analysis of basis
      --------------------------

        a1         11
        a2          2
        b1          7
        b2          4


  The SCF is already converged 

         Total SCF energy =    -75.627326085196

                   NWChem Extensible Many-Electron Theory Module
                   ---------------------------------------------

              ======================================================
                   This portion of the program was automatically
                  generated by a Tensor Contraction Engine (TCE).
                  The development of this portion of the program
                 and TCE was supported by US Department of Energy,
                Office of Science, Office of Basic Energy Science.
                      TCE is a product of Battelle and PNNL.
              Please cite: S.Hirata, J.Phys.Chem.A 107, 9887 (2003).
              ======================================================

            General Information
            -------------------
      Number of processors :     1
         Wavefunction type : Restricted open-shell Hartree-Fock
          No. of electrons :     9
           Alpha electrons :     5
            Beta electrons :     4
           No. of orbitals :    48
            Alpha orbitals :    24
             Beta orbitals :    24
        Alpha frozen cores :     1
         Beta frozen cores :     1
     Alpha frozen virtuals :     0
      Beta frozen virtuals :     0
         Spin multiplicity : doublet 
    Number of AO functions :    24
       Number of AO shells :    12
        Use of symmetry is : on 
      Symmetry adaption is : on 
         Schwarz screening : 0.10D-09

          Correlation Information
          -----------------------
          Calculation type : Coupled-cluster singles & doubles                           
   Perturbative correction : none                                                        
            Max iterations :      100
        Residual threshold : 0.10D-06
     T(0) DIIS level shift : 0.00D+00
     L(0) DIIS level shift : 0.00D+00
     T(1) DIIS level shift : 0.00D+00
     L(1) DIIS level shift : 0.00D+00
     T(R) DIIS level shift : 0.00D+00
     T(I) DIIS level shift : 0.00D+00
   CC-T/L Amplitude update :  5-th order DIIS
                I/O scheme : Global Array Library
        L-threshold : 0.10D-06
        EOM-threshold : 0.10D-06
 no EOMCCSD initial starts read in
 TCE RESTART OPTIONS
 READ_INT:   F
 WRITE_INT:  F
 READ_TA:    F
 WRITE_TA:   F
 READ_XA:    F
 WRITE_XA:   F
 READ_IN3:   F
 WRITE_IN3:  F

            Memory Information
            ------------------
          Available GA space size is     117963648 doubles
          Available MA space size is     131070152 doubles

 Maximum block size supplied by input
 Maximum block size        20 doubles

 tile_dim =      8

 Block   Spin    Irrep     Size     Offset   Alpha
 -------------------------------------------------
   1    alpha     a1     2 doubles       0       1
   2    alpha     b1     1 doubles       2       2
   3    alpha     b2     1 doubles       3       3
   4    beta      a1     2 doubles       4       4
   5    beta      b1     1 doubles       6       5
   6    alpha     a1     8 doubles       7       6
   7    alpha     a2     2 doubles      15       7
   8    alpha     b1     6 doubles      17       8
   9    alpha     b2     3 doubles      23       9
  10    beta      a1     8 doubles      26      10
  11    beta      a2     2 doubles      34      11
  12    beta      b1     6 doubles      36      12
  13    beta      b2     1 doubles      42      13
  14    beta      b2     3 doubles      43      14

 Global array virtual files algorithm will be used

 Parallel file system coherency ......... OK

 #quartets = 3.081D+03 #integrals = 2.434D+04 #direct =  0.0% #cached =100.0%


 Integral file          = /tmp/tce_2emet_rohf.aoints.0
 Record size in doubles =  65536        No. of integs per rec  =  43688
 Max. records in memory =    761        Max. records in file   =      0
 No. of bits per label  =      8        No. of bits per value  =     64


 Fock matrix recomputed
 1-e file size   =              338
 1-e file name   = /tmp/tce_2emet_rohf.
 Cpu & wall time / sec            0.1            0.1
 4-electron integrals stored in orbital form

 v2    file size   =            20937
 4-index algorithm nr.   2 is used
 imaxsize =       20
 imaxsize ichop =        0
 INTERMEDIATE FILES
 size_4af               263169
 size_2a2mf               166212
 Cpu & wall time / sec            0.3            0.3
 do_pt =  F
 do_lam_pt =  F
 do_cr_pt =  F
 do_lcr_pt =  F
 do_2t_pt =  F
 T1-number-of-tasks                    5

 t1 file size   =               47
 t1 file name   = /tmp/tce_2emet_rohf.
 t1 file handle =       -997
 T2-number-of-boxes                   63

 t2 file size   =             2843
 t2 file name   = /tmp/tce_2emet_rohf.
 t2 file handle =       -995

 CCSD iterations
 -----------------------------------------------------------------
 Iter          Residuum       Correlation     Cpu    Wall    V2*C2
 -----------------------------------------------------------------
    1   0.1009164262999  -0.1600359538097     0.1     0.1     0.0
    2   0.0273735570494  -0.1688311913463     0.1     0.1     0.0
    3   0.0097863533262  -0.1711159983762     0.1     0.1     0.0
    4   0.0039049529791  -0.1717539986400     0.1     0.1     0.0
    5   0.0016393254432  -0.1719833017643     0.1     0.2     0.0
 MICROCYCLE DIIS UPDATE:                    5                    5
    6   0.0001727346053  -0.1721298575274     0.1     0.1     0.0
    7   0.0000719997564  -0.1721312504527     0.1     0.1     0.0
    8   0.0000326336416  -0.1721319823886     0.1     0.1     0.0
    9   0.0000172501414  -0.1721320578137     0.1     0.1     0.0
   10   0.0000090459278  -0.1721322108093     0.1     0.2     0.0
 MICROCYCLE DIIS UPDATE:                   10                    5
   11   0.0000010464673  -0.1721323971013     0.1     0.2     0.0
   12   0.0000003409317  -0.1721323802694     0.1     0.2     0.0
   13   0.0000001625235  -0.1721323864698     0.1     0.2     0.0
   14   0.0000000822801  -0.1721323866659     0.1     0.2     0.0
 -----------------------------------------------------------------
 Iterations converged
 CCSD correlation energy / hartree =        -0.172132386665942
 CCSD total energy / hartree       =       -75.799458471861485

 Singles contributions

 Doubles contributions

 Parallel integral file used       1 records with       0 large values


 Task  times  cpu:        2.3s     wall:        2.5s


                                NWChem Input Module
                                -------------------


                                 NWChem SCF Module
                                 -----------------



  ao basis        = "ao basis"
  functions       =    24
  atoms           =     3
  closed shells   =     4
  open shells     =     1
  charge          =   1.00
  wavefunction    = ROHF
  input vectors   = /tmp/tce_2emet_rohf.movecs
  output vectors  = /tmp/tce_2emet_rohf.movecs
  use symmetry    = T
  symmetry adapt  = T


 Summary of "ao basis" -> "ao basis" (spherical)
 ------------------------------------------------------------------------------
       Tag                 Description            Shells   Functions and Types
 ---------------- ------------------------------  ------  ---------------------
 O                          cc-pVDZ                  6       14   3s2p1d
 H                          cc-pVDZ                  3        5   2s1p


      Symmetry analysis of basis
      --------------------------

        a1         11
        a2          2
        b1          7
        b2          4


  The SCF is already converged 

         Total SCF energy =    -75.627326085196

                   NWChem Extensible Many-Electron Theory Module
                   ---------------------------------------------

              ======================================================
                   This portion of the program was automatically
                  generated by a Tensor Contraction Engine (TCE).
                  The development of this portion of the program
                 and TCE was supported by US Department of Energy,
                Office of Science, Office of Basic Energy Science.
                      TCE is a product of Battelle and PNNL.
              Please cite: S.Hirata, J.Phys.Chem.A 107, 9887 (2003).
              ======================================================

            General Information
            -------------------
      Number of processors :     1
         Wavefunction type : Restricted open-shell Hartree-Fock
          No. of electrons :     9
           Alpha electrons :     5
            Beta electrons :     4
           No. of orbitals :    48
            Alpha orbitals :    24
             Beta orbitals :    24
        Alpha frozen cores :     1
         Beta frozen cores :     1
     Alpha frozen virtuals :     0
      Beta frozen virtuals :     0
         Spin multiplicity : doublet 
    Number of AO functions :    24
       Number of AO shells :    12
        Use of symmetry is : on 
      Symmetry adaption is : on 
         Schwarz screening : 0.10D-09

          Correlation Information
          -----------------------
          Calculation type : Coupled-cluster singles & doubles                           
   Perturbative correction : none                                                        
            Max iterations :      100
        Residual threshold : 0.10D-06
     T(0) DIIS level shift : 0.00D+00
     L(0) DIIS level shift : 0.00D+00
     T(1) DIIS level shift : 0.00D+00
     L(1) DIIS level shift : 0.00D+00
     T(R) DIIS level shift : 0.00D+00
     T(I) DIIS level shift : 0.00D+00
   CC-T/L Amplitude update :  5-th order DIIS
                I/O scheme : Global Array Library
        L-threshold : 0.10D-06
        EOM-threshold : 0.10D-06
 no EOMCCSD initial starts read in
 TCE RESTART OPTIONS
 READ_INT:   F
 WRITE_INT:  F
 READ_TA:    F
 WRITE_TA:   F
 READ_XA:    F
 WRITE_XA:   F
 READ_IN3:   F
 WRITE_IN3:  F

            Memory Information
            ------------------
          Available GA space size is     117963648 doubles
          Available MA space size is     131070152 doubles

 Maximum block size supplied by input
 Maximum block size        20 doubles

 tile_dim =      8

 Block   Spin    Irrep     Size     Offset   Alpha
 -------------------------------------------------
   1    alpha     a1     2 doubles       0       1
   2    alpha     b1     1 doubles       2       2
   3    alpha     b2     1 doubles       3       3
   4    beta      a1     2 doubles       4       4
   5    beta      b1     1 doubles       6       5
   6    alpha     a1     8 doubles       7       6
   7    alpha     a2     2 doubles      15       7
   8    alpha     b1     6 doubles      17       8
   9    alpha     b2     3 doubles      23       9
  10    beta      a1     8 doubles      26      10
  11    beta      a2     2 doubles      34      11
  12    beta      b1     6 doubles      36      12
  13    beta      b2     1 doubles      42      13
  14    beta      b2     3 doubles      43      14

 Global array virtual files algorithm will be used

 Parallel file system coherency ......... OK

 #quartets = 3.081D+03 #integrals = 2.434D+04 #direct =  0.0% #cached =100.0%


 Integral file          = /tmp/tce_2emet_rohf.aoints.0
 Record size in doubles =  65536        No. of integs per rec  =  43688
 Max. records in memory =    761        Max. records in file   =      0
 No. of bits per label  =      8        No. of bits per value  =     64


 Fock matrix recomputed
 1-e file size   =              338
 1-e file name   = /tmp/tce_2emet_rohf.
 Cpu & wall time / sec            0.1            0.1
 4-electron integrals stored in orbital form

 v2    file size   =            20937
 4-index algorithm nr.   3 is used
 imaxsize =       20
 imaxsize ichop =        0
 Cpu & wall time / sec            0.3            0.3
 do_pt =  F
 do_lam_pt =  F
 do_cr_pt =  F
 do_lcr_pt =  F
 do_2t_pt =  F
 T1-number-of-tasks                    5

 t1 file size   =               47
 t1 file name   = /tmp/tce_2emet_rohf.
 t1 file handle =       -997
 T2-number-of-boxes                   63

 t2 file size   =             2843
 t2 file name   = /tmp/tce_2emet_rohf.
 t2 file handle =       -995

 CCSD iterations
 -----------------------------------------------------------------
 Iter          Residuum       Correlation     Cpu    Wall    V2*C2
 -----------------------------------------------------------------
    1   0.1009164262999  -0.1600359538097     0.1     0.1     0.0
    2   0.0273735570494  -0.1688311913463     0.1     0.1     0.0
    3   0.0097863533262  -0.1711159983762     0.1     0.1     0.0
    4   0.0039049529791  -0.1717539986400     0.1     0.1     0.0
    5   0.0016393254432  -0.1719833017643     0.1     0.1     0.0
 MICROCYCLE DIIS UPDATE:                    5                    5
    6   0.0001727346053  -0.1721298575274     0.1     0.1     0.0
    7   0.0000719997564  -0.1721312504527     0.1     0.1     0.0
    8   0.0000326336416  -0.1721319823886     0.1     0.1     0.0
    9   0.0000172501414  -0.1721320578137     0.1     0.1     0.0
   10   0.0000090459278  -0.1721322108093     0.1     0.1     0.0
 MICROCYCLE DIIS UPDATE:                   10                    5
   11   0.0000010464673  -0.1721323971013     0.1     0.1     0.0
   12   0.0000003409317  -0.1721323802694     0.1     0.1     0.0
   13   0.0000001625235  -0.1721323864698     0.1     0.1     0.0
   14   0.0000000822801  -0.1721323866659     0.1     0.1     0.0
 -----------------------------------------------------------------
 Iterations converged
 CCSD correlation energy / hartree =        -0.172132386665942
 CCSD total energy / hartree       =       -75.799458471861485

 Singles contributions

 Doubles contributions

 Parallel integral file used       1 records with       0 large values


 Task  times  cpu:        2.3s     wall:        2.4s


                                NWChem Input Module
                                -------------------


                                 NWChem SCF Module
                                 -----------------



  ao basis        = "ao basis"
  functions       =    24
  atoms           =     3
  closed shells   =     4
  open shells     =     1
  charge          =   1.00
  wavefunction    = ROHF
  input vectors   = /tmp/tce_2emet_rohf.movecs
  output vectors  = /tmp/tce_2emet_rohf.movecs
  use symmetry    = T
  symmetry adapt  = T


 Summary of "ao basis" -> "ao basis" (spherical)
 ------------------------------------------------------------------------------
       Tag                 Description            Shells   Functions and Types
 ---------------- ------------------------------  ------  ---------------------
 O                          cc-pVDZ                  6       14   3s2p1d
 H                          cc-pVDZ                  3        5   2s1p


      Symmetry analysis of basis
      --------------------------

        a1         11
        a2          2
        b1          7
        b2          4


  The SCF is already converged 

         Total SCF energy =    -75.627326085196

                   NWChem Extensible Many-Electron Theory Module
                   ---------------------------------------------

              ======================================================
                   This portion of the program was automatically
                  generated by a Tensor Contraction Engine (TCE).
                  The development of this portion of the program
                 and TCE was supported by US Department of Energy,
                Office of Science, Office of Basic Energy Science.
                      TCE is a product of Battelle and PNNL.
              Please cite: S.Hirata, J.Phys.Chem.A 107, 9887 (2003).
              ======================================================

            General Information
            -------------------
      Number of processors :     1
         Wavefunction type : Restricted open-shell Hartree-Fock
          No. of electrons :     9
           Alpha electrons :     5
            Beta electrons :     4
           No. of orbitals :    48
            Alpha orbitals :    24
             Beta orbitals :    24
        Alpha frozen cores :     1
         Beta frozen cores :     1
     Alpha frozen virtuals :     0
      Beta frozen virtuals :     0
         Spin multiplicity : doublet 
    Number of AO functions :    24
       Number of AO shells :    12
        Use of symmetry is : on 
      Symmetry adaption is : on 
         Schwarz screening : 0.10D-09

          Correlation Information
          -----------------------
          Calculation type : Coupled-cluster singles & doubles                           
   Perturbative correction : none                                                        
            Max iterations :      100
        Residual threshold : 0.10D-06
     T(0) DIIS level shift : 0.00D+00
     L(0) DIIS level shift : 0.00D+00
     T(1) DIIS level shift : 0.00D+00
     L(1) DIIS level shift : 0.00D+00
     T(R) DIIS level shift : 0.00D+00
     T(I) DIIS level shift : 0.00D+00
   CC-T/L Amplitude update :  5-th order DIIS
                I/O scheme : Global Array Library
        L-threshold : 0.10D-06
        EOM-threshold : 0.10D-06
 no EOMCCSD initial starts read in
 TCE RESTART OPTIONS
 READ_INT:   F
 WRITE_INT:  F
 READ_TA:    F
 WRITE_TA:   F
 READ_XA:    F
 WRITE_XA:   F
 READ_IN3:   F
 WRITE_IN3:  F

            Memory Information
            ------------------
          Available GA space size is     117963648 doubles
          Available MA space size is     131070152 doubles

 Maximum block size supplied by input
 Maximum block size        20 doubles

 tile_dim =      8

 Block   Spin    Irrep     Size     Offset   Alpha
 -------------------------------------------------
   1    alpha     a1     2 doubles       0       1
   2    alpha     b1     1 doubles       2       2
   3    alpha     b2     1 doubles       3       3
   4    beta      a1     2 doubles       4       4
   5    beta      b1     1 doubles       6       5
   6    alpha     a1     8 doubles       7       6
   7    alpha     a2     2 doubles      15       7
   8    alpha     b1     6 doubles      17       8
   9    alpha     b2     3 doubles      23       9
  10    beta      a1     8 doubles      26      10
  11    beta      a2     2 doubles      34      11
  12    beta      b1     6 doubles      36      12
  13    beta      b2     1 doubles      42      13
  14    beta      b2     3 doubles      43      14

 Global array virtual files algorithm will be used

 Parallel file system coherency ......... OK

 #quartets = 3.081D+03 #integrals = 2.434D+04 #direct =  0.0% #cached =100.0%


 Integral file          = /tmp/tce_2emet_rohf.aoints.0
 Record size in doubles =  65536        No. of integs per rec  =  43688
 Max. records in memory =    761        Max. records in file   =      0
 No. of bits per label  =      8        No. of bits per value  =     64


 Fock matrix recomputed
 1-e file size   =              338
 1-e file name   = /tmp/tce_2emet_rohf.
 Cpu & wall time / sec            0.1            0.1
 4-electron integrals stored in orbital form

 v2    file size   =            20937
 4-index algorithm nr.   4 is used
 imaxsize =       20
 imaxsize ichop =        0
 next size_4af ====>               263169
 size_2e =====                20937
 Cpu & wall time / sec            0.3            0.3
 do_pt =  F
 do_lam_pt =  F
 do_cr_pt =  F
 do_lcr_pt =  F
 do_2t_pt =  F
 T1-number-of-tasks                    5

 t1 file size   =               47
 t1 file name   = /tmp/tce_2emet_rohf.
 t1 file handle =       -997
 T2-number-of-boxes                   63

 t2 file size   =             2843
 t2 file name   = /tmp/tce_2emet_rohf.
 t2 file handle =       -995

 CCSD iterations
 -----------------------------------------------------------------
 Iter          Residuum       Correlation     Cpu    Wall    V2*C2
 -----------------------------------------------------------------
    1   0.1009164262999  -0.1600359538097     0.1     0.1     0.0
    2   0.0273735570494  -0.1688311913463     0.1     0.1     0.0
    3   0.0097863533262  -0.1711159983762     0.1     0.1     0.0
    4   0.0039049529791  -0.1717539986400     0.1     0.1     0.0
    5   0.0016393254432  -0.1719833017643     0.1     0.1     0.0
 MICROCYCLE DIIS UPDATE:                    5                    5
    6   0.0001727346053  -0.1721298575274     0.1     0.1     0.0
    7   0.0000719997564  -0.1721312504527     0.1     0.1     0.0
    8   0.0000326336416  -0.1721319823886     0.1     0.2     0.0
    9   0.0000172501414  -0.1721320578137     0.1     0.1     0.0
   10   0.0000090459278  -0.1721322108093     0.1     0.1     0.0
 MICROCYCLE DIIS UPDATE:                   10                    5
   11   0.0000010464673  -0.1721323971013     0.1     0.1     0.0
   12   0.0000003409317  -0.1721323802694     0.1     0.1     0.0
   13   0.0000001625235  -0.1721323864698     0.1     0.1     0.0
   14   0.0000000822801  -0.1721323866659     0.1     0.1     0.0
 -----------------------------------------------------------------
 Iterations converged
 CCSD correlation energy / hartree =        -0.172132386665942
 CCSD total energy / hartree       =       -75.799458471861485

 Singles contributions

 Doubles contributions

 Parallel integral file used       1 records with       0 large values


 Task  times  cpu:        2.3s     wall:        2.5s


                                NWChem Input Module
                                -------------------


                                 NWChem SCF Module
                                 -----------------



  ao basis        = "ao basis"
  functions       =    24
  atoms           =     3
  closed shells   =     4
  open shells     =     1
  charge          =   1.00
  wavefunction    = ROHF
  input vectors   = /tmp/tce_2emet_rohf.movecs
  output vectors  = /tmp/tce_2emet_rohf.movecs
  use symmetry    = T
  symmetry adapt  = T


 Summary of "ao basis" -> "ao basis" (spherical)
 ------------------------------------------------------------------------------
       Tag                 Description            Shells   Functions and Types
 ---------------- ------------------------------  ------  ---------------------
 O                          cc-pVDZ                  6       14   3s2p1d
 H                          cc-pVDZ                  3        5   2s1p


      Symmetry analysis of basis
      --------------------------

        a1         11
        a2          2
        b1          7
        b2          4


  The SCF is already converged 

         Total SCF energy =    -75.627326085196

                   NWChem Extensible Many-Electron Theory Module
                   ---------------------------------------------

              ======================================================
                   This portion of the program was automatically
                  generated by a Tensor Contraction Engine (TCE).
                  The development of this portion of the program
                 and TCE was supported by US Department of Energy,
                Office of Science, Office of Basic Energy Science.
                      TCE is a product of Battelle and PNNL.
              Please cite: S.Hirata, J.Phys.Chem.A 107, 9887 (2003).
              ======================================================

            General Information
            -------------------
      Number of processors :     1
         Wavefunction type : Restricted open-shell Hartree-Fock
          No. of electrons :     9
           Alpha electrons :     5
            Beta electrons :     4
           No. of orbitals :    48
            Alpha orbitals :    24
             Beta orbitals :    24
        Alpha frozen cores :     1
         Beta frozen cores :     1
     Alpha frozen virtuals :     0
      Beta frozen virtuals :     0
         Spin multiplicity : doublet 
    Number of AO functions :    24
       Number of AO shells :    12
        Use of symmetry is : on 
      Symmetry adaption is : on 
         Schwarz screening : 0.10D-09

          Correlation Information
          -----------------------
          Calculation type : Coupled-cluster singles & doubles                           
   Perturbative correction : none                                                        
            Max iterations :      100
        Residual threshold : 0.10D-06
     T(0) DIIS level shift : 0.00D+00
     L(0) DIIS level shift : 0.00D+00
     T(1) DIIS level shift : 0.00D+00
     L(1) DIIS level shift : 0.00D+00
     T(R) DIIS level shift : 0.00D+00
     T(I) DIIS level shift : 0.00D+00
   CC-T/L Amplitude update :  5-th order DIIS
                I/O scheme : Global Array Library
        L-threshold : 0.10D-06
        EOM-threshold : 0.10D-06
 no EOMCCSD initial starts read in
 TCE RESTART OPTIONS
 READ_INT:   F
 WRITE_INT:  F
 READ_TA:    F
 WRITE_TA:   F
 READ_XA:    F
 WRITE_XA:   F
 READ_IN3:   F
 WRITE_IN3:  F

            Memory Information
            ------------------
          Available GA space size is     117963648 doubles
          Available MA space size is     131070152 doubles

 Maximum block size supplied by input
 Maximum block size        20 doubles

 tile_dim =      8

 Block   Spin    Irrep     Size     Offset   Alpha
 -------------------------------------------------
   1    alpha     a1     2 doubles       0       1
   2    alpha     b1     1 doubles       2       2
   3    alpha     b2     1 doubles       3       3
   4    beta      a1     2 doubles       4       4
   5    beta      b1     1 doubles       6       5
   6    alpha     a1     8 doubles       7       6
   7    alpha     a2     2 doubles      15       7
   8    alpha     b1     6 doubles      17       8
   9    alpha     b2     3 doubles      23       9
  10    beta      a1     8 doubles      26      10
  11    beta      a2     2 doubles      34      11
  12    beta      b1     6 doubles      36      12
  13    beta      b2     1 doubles      42      13
  14    beta      b2     3 doubles      43      14

 Global array virtual files algorithm will be used

 Parallel file system coherency ......... OK

 #quartets = 3.081D+03 #integrals = 2.434D+04 #direct =  0.0% #cached =100.0%


 Integral file          = /tmp/tce_2emet_rohf.aoints.0
 Record size in doubles =  65536        No. of integs per rec  =  43688
 Max. records in memory =    761        Max. records in file   =      0
 No. of bits per label  =      8        No. of bits per value  =     64


 Fock matrix recomputed
 1-e file size   =              338
 1-e file name   = /tmp/tce_2emet_rohf.
 Cpu & wall time / sec            0.1            0.1
 4-electron integrals stored in orbital form

 v2    file size   =            20937
 4-index algorithm nr.   5 is used
 imaxsize =       20
 imaxsize ichop =        0
 2_EL_BATCH AND COEFF MATRIX
 size_ic               388963
 size_icc                  168
 tile_dim                    8
 max_na                   21
 INTERMEDIATE FILES
 size_4af               263169
 size_3a1mf               283176
 size_2a2mf               166212
 size_1a3mf               178848
 size_2e                20937
 before sf_create
 after sf_create
 STEP2 4index
 STEP3 4index
 STEP3 test
 STEP4 4index
 STEP5 4index
 DONE --- DONE ---- DONE ---- DONE
 Cpu & wall time / sec            0.3            0.3
 do_pt =  F
 do_lam_pt =  F
 do_cr_pt =  F
 do_lcr_pt =  F
 do_2t_pt =  F
 T1-number-of-tasks                    5

 t1 file size   =               47
 t1 file name   = /tmp/tce_2emet_rohf.
 t1 file handle =       -997
 T2-number-of-boxes                   63

 t2 file size   =             2843
 t2 file name   = /tmp/tce_2emet_rohf.
 t2 file handle =       -995

 CCSD iterations
 -----------------------------------------------------------------
 Iter          Residuum       Correlation     Cpu    Wall    V2*C2
 -----------------------------------------------------------------
    1   0.1009164262999  -0.1600359538097     0.1     0.1     0.0
    2   0.0273735570494  -0.1688311913463     0.1     0.1     0.0
    3   0.0097863533262  -0.1711159983762     0.1     0.1     0.0
    4   0.0039049529791  -0.1717539986400     0.1     0.1     0.0
    5   0.0016393254432  -0.1719833017643     0.1     0.1     0.0
 MICROCYCLE DIIS UPDATE:                    5                    5
    6   0.0001727346053  -0.1721298575274     0.1     0.1     0.0
    7   0.0000719997564  -0.1721312504527     0.1     0.1     0.0
    8   0.0000326336416  -0.1721319823886     0.1     0.1     0.0
    9   0.0000172501414  -0.1721320578137     0.1     0.1     0.0
   10   0.0000090459278  -0.1721322108093     0.1     0.1     0.0
 MICROCYCLE DIIS UPDATE:                   10                    5
   11   0.0000010464673  -0.1721323971013     0.1     0.1     0.0
   12   0.0000003409317  -0.1721323802694     0.1     0.1     0.0
   13   0.0000001625235  -0.1721323864698     0.1     0.1     0.0
   14   0.0000000822801  -0.1721323866659     0.1     0.1     0.0
 -----------------------------------------------------------------
 Iterations converged
 CCSD correlation energy / hartree =        -0.172132386665942
 CCSD total energy / hartree       =       -75.799458471861485

 Singles contributions

 Doubles contributions

 Parallel integral file used       1 records with       0 large values


 Task  times  cpu:        2.3s     wall:        2.4s


                                NWChem Input Module
                                -------------------


                                 NWChem SCF Module
                                 -----------------



  ao basis        = "ao basis"
  functions       =    24
  atoms           =     3
  closed shells   =     4
  open shells     =     1
  charge          =   1.00
  wavefunction    = ROHF
  input vectors   = /tmp/tce_2emet_rohf.movecs
  output vectors  = /tmp/tce_2emet_rohf.movecs
  use symmetry    = T
  symmetry adapt  = T


 Summary of "ao basis" -> "ao basis" (spherical)
 ------------------------------------------------------------------------------
       Tag                 Description            Shells   Functions and Types
 ---------------- ------------------------------  ------  ---------------------
 O                          cc-pVDZ                  6       14   3s2p1d
 H                          cc-pVDZ                  3        5   2s1p


      Symmetry analysis of basis
      --------------------------

        a1         11
        a2          2
        b1          7
        b2          4


  The SCF is already converged 

         Total SCF energy =    -75.627326085196

                   NWChem Extensible Many-Electron Theory Module
                   ---------------------------------------------

              ======================================================
                   This portion of the program was automatically
                  generated by a Tensor Contraction Engine (TCE).
                  The development of this portion of the program
                 and TCE was supported by US Department of Energy,
                Office of Science, Office of Basic Energy Science.
                      TCE is a product of Battelle and PNNL.
              Please cite: S.Hirata, J.Phys.Chem.A 107, 9887 (2003).
              ======================================================

            General Information
            -------------------
      Number of processors :     1
         Wavefunction type : Restricted open-shell Hartree-Fock
          No. of electrons :     9
           Alpha electrons :     5
            Beta electrons :     4
           No. of orbitals :    48
            Alpha orbitals :    24
             Beta orbitals :    24
        Alpha frozen cores :     1
         Beta frozen cores :     1
     Alpha frozen virtuals :     0
      Beta frozen virtuals :     0
         Spin multiplicity : doublet 
    Number of AO functions :    24
       Number of AO shells :    12
        Use of symmetry is : on 
      Symmetry adaption is : on 
         Schwarz screening : 0.10D-09

          Correlation Information
          -----------------------
          Calculation type : Coupled-cluster singles & doubles                           
   Perturbative correction : none                                                        
            Max iterations :      100
        Residual threshold : 0.10D-06
     T(0) DIIS level shift : 0.00D+00
     L(0) DIIS level shift : 0.00D+00
     T(1) DIIS level shift : 0.00D+00
     L(1) DIIS level shift : 0.00D+00
     T(R) DIIS level shift : 0.00D+00
     T(I) DIIS level shift : 0.00D+00
   CC-T/L Amplitude update :  5-th order DIIS
                I/O scheme : Global Array Library
        L-threshold : 0.10D-06
        EOM-threshold : 0.10D-06
 no EOMCCSD initial starts read in
 TCE RESTART OPTIONS
 READ_INT:   F
 WRITE_INT:  F
 READ_TA:    F
 WRITE_TA:   F
 READ_XA:    F
 WRITE_XA:   F
 READ_IN3:   F
 WRITE_IN3:  F

            Memory Information
            ------------------
          Available GA space size is     117963648 doubles
          Available MA space size is     131070152 doubles

 Maximum block size supplied by input
 Maximum block size        20 doubles

 tile_dim =      8

 Block   Spin    Irrep     Size     Offset   Alpha
 -------------------------------------------------
   1    alpha     a1     2 doubles       0       1
   2    alpha     b1     1 doubles       2       2
   3    alpha     b2     1 doubles       3       3
   4    beta      a1     2 doubles       4       4
   5    beta      b1     1 doubles       6       5
   6    alpha     a1     8 doubles       7       6
   7    alpha     a2     2 doubles      15       7
   8    alpha     b1     6 doubles      17       8
   9    alpha     b2     3 doubles      23       9
  10    beta      a1     8 doubles      26      10
  11    beta      a2     2 doubles      34      11
  12    beta      b1     6 doubles      36      12
  13    beta      b2     1 doubles      42      13
  14    beta      b2     3 doubles      43      14

 Global array virtual files algorithm will be used

 Parallel file system coherency ......... OK

 #quartets = 3.081D+03 #integrals = 2.434D+04 #direct =  0.0% #cached =100.0%


 Integral file          = /tmp/tce_2emet_rohf.aoints.0
 Record size in doubles =  65536        No. of integs per rec  =  43688
 Max. records in memory =    761        Max. records in file   =      0
 No. of bits per label  =      8        No. of bits per value  =     64


 Fock matrix recomputed
 1-e file size   =              338
 1-e file name   = /tmp/tce_2emet_rohf.
 Cpu & wall time / sec            0.1            0.1
 4-electron integrals stored in orbital form

 v2    file size   =            20937
 4-index algorithm nr.   6 is used
 imaxsize =       20
 imaxsize ichop =        0
 2_EL_BATCH AND COEFF MATRIX
 size_ic               388963
 size_icc                  168
 tile_dim                    8
 max_na                   21
 before sf_create
 n_4a_files                    2
 sizes:
size_4a_m(i)     1      258552
size_4a_m(i)     2        4617
 -----------------
 after sf_create
 4A integrals cpu,wall   0.24396300000000082       0.24584197998046875     
 STEP2 4index
 3A1M integrals cpu wall  9.99900000000053524E-003  1.30848884582519531E-002
 STEP3 4index
 2A2M integrals cpu wall  5.99900000000097577E-003  8.43882560729980469E-003
 STEP4 4index
 1A3M integrals cpu wall  1.09989999999999810E-002  1.55031681060791016E-002
 STEP5 4index
 4M integrals cpu wall  1.99999999999889155E-003  1.58309936523437500E-003
 DONE --- DONE ---- DONE ---- DONE
 Cpu & wall time / sec            0.3            0.3
 do_pt =  F
 do_lam_pt =  F
 do_cr_pt =  F
 do_lcr_pt =  F
 do_2t_pt =  F
 T1-number-of-tasks                    5

 t1 file size   =               47
 t1 file name   = /tmp/tce_2emet_rohf.
 t1 file handle =       -997
 T2-number-of-boxes                   63

 t2 file size   =             2843
 t2 file name   = /tmp/tce_2emet_rohf.
 t2 file handle =       -995

 CCSD iterations
 -----------------------------------------------------------------
 Iter          Residuum       Correlation     Cpu    Wall    V2*C2
 -----------------------------------------------------------------
    1   0.1009164262999  -0.1600359538097     0.1     0.1     0.0
    2   0.0273735570494  -0.1688311913463     0.1     0.1     0.0
    3   0.0097863533262  -0.1711159983762     0.1     0.1     0.0
    4   0.0039049529791  -0.1717539986400     0.1     0.1     0.0
    5   0.0016393254432  -0.1719833017643     0.1     0.1     0.0
 MICROCYCLE DIIS UPDATE:                    5                    5
    6   0.0001727346053  -0.1721298575274     0.1     0.1     0.0
    7   0.0000719997564  -0.1721312504527     0.1     0.1     0.0
    8   0.0000326336416  -0.1721319823886     0.1     0.1     0.0
    9   0.0000172501414  -0.1721320578137     0.1     0.1     0.0
   10   0.0000090459278  -0.1721322108093     0.1     0.1     0.0
 MICROCYCLE DIIS UPDATE:                   10                    5
   11   0.0000010464673  -0.1721323971013     0.1     0.1     0.0
   12   0.0000003409317  -0.1721323802694     0.1     0.1     0.0
   13   0.0000001625235  -0.1721323864698     0.1     0.1     0.0
   14   0.0000000822801  -0.1721323866659     0.1     0.1     0.0
 -----------------------------------------------------------------
 Iterations converged
 CCSD correlation energy / hartree =        -0.172132386665942
 CCSD total energy / hartree       =       -75.799458471861485

 Singles contributions

 Doubles contributions

 Parallel integral file used       1 records with       0 large values


 Task  times  cpu:        2.2s     wall:        2.4s


                                NWChem Input Module
                                -------------------


                                 NWChem SCF Module
                                 -----------------



  ao basis        = "ao basis"
  functions       =    24
  atoms           =     3
  closed shells   =     4
  open shells     =     1
  charge          =   1.00
  wavefunction    = ROHF
  input vectors   = /tmp/tce_2emet_rohf.movecs
  output vectors  = /tmp/tce_2emet_rohf.movecs
  use symmetry    = T
  symmetry adapt  = T


 Summary of "ao basis" -> "ao basis" (spherical)
 ------------------------------------------------------------------------------
       Tag                 Description            Shells   Functions and Types
 ---------------- ------------------------------  ------  ---------------------
 O                          cc-pVDZ                  6       14   3s2p1d
 H                          cc-pVDZ                  3        5   2s1p


      Symmetry analysis of basis
      --------------------------

        a1         11
        a2          2
        b1          7
        b2          4


  The SCF is already converged 

         Total SCF energy =    -75.627326085196

                   NWChem Extensible Many-Electron Theory Module
                   ---------------------------------------------

              ======================================================
                   This portion of the program was automatically
                  generated by a Tensor Contraction Engine (TCE).
                  The development of this portion of the program
                 and TCE was supported by US Department of Energy,
                Office of Science, Office of Basic Energy Science.
                      TCE is a product of Battelle and PNNL.
              Please cite: S.Hirata, J.Phys.Chem.A 107, 9887 (2003).
              ======================================================

            General Information
            -------------------
      Number of processors :     1
         Wavefunction type : Restricted open-shell Hartree-Fock
          No. of electrons :     9
           Alpha electrons :     5
            Beta electrons :     4
           No. of orbitals :    48
            Alpha orbitals :    24
             Beta orbitals :    24
        Alpha frozen cores :     1
         Beta frozen cores :     1
     Alpha frozen virtuals :     0
      Beta frozen virtuals :     0
         Spin multiplicity : doublet 
    Number of AO functions :    24
       Number of AO shells :    12
        Use of symmetry is : on 
      Symmetry adaption is : on 
         Schwarz screening : 0.10D-09

          Correlation Information
          -----------------------
          Calculation type : Coupled-cluster singles & doubles                           
   Perturbative correction : none                                                        
            Max iterations :      100
        Residual threshold : 0.10D-06
     T(0) DIIS level shift : 0.00D+00
     L(0) DIIS level shift : 0.00D+00
     T(1) DIIS level shift : 0.00D+00
     L(1) DIIS level shift : 0.00D+00
     T(R) DIIS level shift : 0.00D+00
     T(I) DIIS level shift : 0.00D+00
   CC-T/L Amplitude update :  5-th order DIIS
                I/O scheme : Global Array Library
        L-threshold : 0.10D-06
        EOM-threshold : 0.10D-06
 no EOMCCSD initial starts read in
 TCE RESTART OPTIONS
 READ_INT:   F
 WRITE_INT:  F
 READ_TA:    F
 WRITE_TA:   F
 READ_XA:    F
 WRITE_XA:   F
 READ_IN3:   F
 WRITE_IN3:  F

            Memory Information
            ------------------
          Available GA space size is     117963648 doubles
          Available MA space size is     131070152 doubles

 Maximum block size supplied by input
 Maximum block size        20 doubles

 tile_dim =      8

 Block   Spin    Irrep     Size     Offset   Alpha
 -------------------------------------------------
   1    alpha     a1     2 doubles       0       1
   2    alpha     b1     1 doubles       2       2
   3    alpha     b2     1 doubles       3       3
   4    beta      a1     2 doubles       4       4
   5    beta      b1     1 doubles       6       5
   6    alpha     a1     8 doubles       7       6
   7    alpha     a2     2 doubles      15       7
   8    alpha     b1     6 doubles      17       8
   9    alpha     b2     3 doubles      23       9
  10    beta      a1     8 doubles      26      10
  11    beta      a2     2 doubles      34      11
  12    beta      b1     6 doubles      36      12
  13    beta      b2     1 doubles      42      13
  14    beta      b2     3 doubles      43      14

 Global array virtual files algorithm will be used

 Parallel file system coherency ......... OK

 #quartets = 3.081D+03 #integrals = 2.434D+04 #direct =  0.0% #cached =100.0%


 Integral file          = /tmp/tce_2emet_rohf.aoints.0
 Record size in doubles =  65536        No. of integs per rec  =  43688
 Max. records in memory =    761        Max. records in file   =      0
 No. of bits per label  =      8        No. of bits per value  =     64


 Fock matrix recomputed
 1-e file size   =              338
 1-e file name   = /tmp/tce_2emet_rohf.
 Cpu & wall time / sec            0.1            0.1
 4-electron integrals stored in orbital form

 v2    file size   =            20937
 4-index algorithm nr.  13 is used
 imaxsize =       20
 imaxsize ichop =        0
 Cpu & wall time / sec            0.3            0.3
 do_pt =  F
 do_lam_pt =  F
 do_cr_pt =  F
 do_lcr_pt =  F
 do_2t_pt =  F
 T1-number-of-tasks                    5

 t1 file size   =               47
 t1 file name   = /tmp/tce_2emet_rohf.
 t1 file handle =       -997
 T2-number-of-boxes                   63

 t2 file size   =             2843
 t2 file name   = /tmp/tce_2emet_rohf.
 t2 file handle =       -995

 CCSD iterations
 -----------------------------------------------------------------
 Iter          Residuum       Correlation     Cpu    Wall    V2*C2
 -----------------------------------------------------------------
    1   0.1009164262999  -0.1600359538097     0.1     0.1     0.0
    2   0.0273735570494  -0.1688311913463     0.1     0.1     0.0
    3   0.0097863533262  -0.1711159983762     0.1     0.1     0.0
    4   0.0039049529791  -0.1717539986400     0.1     0.1     0.0
    5   0.0016393254432  -0.1719833017643     0.1     0.1     0.0
 MICROCYCLE DIIS UPDATE:                    5                    5
    6   0.0001727346053  -0.1721298575274     0.1     0.1     0.0
    7   0.0000719997564  -0.1721312504527     0.1     0.1     0.0
    8   0.0000326336416  -0.1721319823886     0.1     0.1     0.0
    9   0.0000172501414  -0.1721320578137     0.1     0.1     0.0
   10   0.0000090459278  -0.1721322108093     0.1     0.1     0.0
 MICROCYCLE DIIS UPDATE:                   10                    5
   11   0.0000010464673  -0.1721323971013     0.1     0.1     0.0
   12   0.0000003409317  -0.1721323802694     0.1     0.1     0.0
   13   0.0000001625235  -0.1721323864698     0.1     0.1     0.0
   14   0.0000000822801  -0.1721323866659     0.1     0.1     0.0
 -----------------------------------------------------------------
 Iterations converged
 CCSD correlation energy / hartree =        -0.172132386665942
 CCSD total energy / hartree       =       -75.799458471861485

 Singles contributions

 Doubles contributions

 Parallel integral file used       1 records with       0 large values


 Task  times  cpu:        2.3s     wall:        2.4s


                                NWChem Input Module
                                -------------------


                                 NWChem SCF Module
                                 -----------------



  ao basis        = "ao basis"
  functions       =    24
  atoms           =     3
  closed shells   =     4
  open shells     =     1
  charge          =   1.00
  wavefunction    = ROHF
  input vectors   = /tmp/tce_2emet_rohf.movecs
  output vectors  = /tmp/tce_2emet_rohf.movecs
  use symmetry    = T
  symmetry adapt  = T


 Summary of "ao basis" -> "ao basis" (spherical)
 ------------------------------------------------------------------------------
       Tag                 Description            Shells   Functions and Types
 ---------------- ------------------------------  ------  ---------------------
 O                          cc-pVDZ                  6       14   3s2p1d
 H                          cc-pVDZ                  3        5   2s1p


      Symmetry analysis of basis
      --------------------------

        a1         11
        a2          2
        b1          7
        b2          4


  The SCF is already converged 

         Total SCF energy =    -75.627326085196

                   NWChem Extensible Many-Electron Theory Module
                   ---------------------------------------------

              ======================================================
                   This portion of the program was automatically
                  generated by a Tensor Contraction Engine (TCE).
                  The development of this portion of the program
                 and TCE was supported by US Department of Energy,
                Office of Science, Office of Basic Energy Science.
                      TCE is a product of Battelle and PNNL.
              Please cite: S.Hirata, J.Phys.Chem.A 107, 9887 (2003).
              ======================================================

            General Information
            -------------------
      Number of processors :     1
         Wavefunction type : Restricted open-shell Hartree-Fock
          No. of electrons :     9
           Alpha electrons :     5
            Beta electrons :     4
           No. of orbitals :    48
            Alpha orbitals :    24
             Beta orbitals :    24
        Alpha frozen cores :     1
         Beta frozen cores :     1
     Alpha frozen virtuals :     0
      Beta frozen virtuals :     0
         Spin multiplicity : doublet 
    Number of AO functions :    24
       Number of AO shells :    12
        Use of symmetry is : on 
      Symmetry adaption is : on 
         Schwarz screening : 0.10D-09

          Correlation Information
          -----------------------
          Calculation type : Coupled-cluster singles & doubles                           
   Perturbative correction : none                                                        
            Max iterations :      100
        Residual threshold : 0.10D-06
     T(0) DIIS level shift : 0.00D+00
     L(0) DIIS level shift : 0.00D+00
     T(1) DIIS level shift : 0.00D+00
     L(1) DIIS level shift : 0.00D+00
     T(R) DIIS level shift : 0.00D+00
     T(I) DIIS level shift : 0.00D+00
   CC-T/L Amplitude update :  5-th order DIIS
                I/O scheme : Global Array Library
        L-threshold : 0.10D-06
        EOM-threshold : 0.10D-06
 no EOMCCSD initial starts read in
 TCE RESTART OPTIONS
 READ_INT:   F
 WRITE_INT:  F
 READ_TA:    F
 WRITE_TA:   F
 READ_XA:    F
 WRITE_XA:   F
 READ_IN3:   F
 WRITE_IN3:  F

            Memory Information
            ------------------
          Available GA space size is     117963648 doubles
          Available MA space size is     131070152 doubles

 Maximum block size supplied by input
 Maximum block size        20 doubles

 tile_dim =      8

 Block   Spin    Irrep     Size     Offset   Alpha
 -------------------------------------------------
   1    alpha     a1     2 doubles       0       1
   2    alpha     b1     1 doubles       2       2
   3    alpha     b2     1 doubles       3       3
   4    beta      a1     2 doubles       4       4
   5    beta      b1     1 doubles       6       5
   6    alpha     a1     8 doubles       7       6
   7    alpha     a2     2 doubles      15       7
   8    alpha     b1     6 doubles      17       8
   9    alpha     b2     3 doubles      23       9
  10    beta      a1     8 doubles      26      10
  11    beta      a2     2 doubles      34      11
  12    beta      b1     6 doubles      36      12
  13    beta      b2     1 doubles      42      13
  14    beta      b2     3 doubles      43      14

 Global array virtual files algorithm will be used

 Parallel file system coherency ......... OK

 #quartets = 3.081D+03 #integrals = 2.434D+04 #direct =  0.0% #cached =100.0%


 Integral file          = /tmp/tce_2emet_rohf.aoints.0
 Record size in doubles =  65536        No. of integs per rec  =  43688
 Max. records in memory =    761        Max. records in file   =      0
 No. of bits per label  =      8        No. of bits per value  =     64


 Fock matrix recomputed
 1-e file size   =              338
 1-e file name   = /tmp/tce_2emet_rohf.
 Cpu & wall time / sec            0.1            0.1
 4-electron integrals stored in orbital form

 v2    file size   =            20937
 4-index algorithm nr.  14 is used
 imaxsize =       20
 imaxsize ichop =        0
 next size_4af ====>               263169
 size_2e =====                20937
 Cpu & wall time / sec            0.3            0.3
 do_pt =  F
 do_lam_pt =  F
 do_cr_pt =  F
 do_lcr_pt =  F
 do_2t_pt =  F
 T1-number-of-tasks                    5

 t1 file size   =               47
 t1 file name   = /tmp/tce_2emet_rohf.
 t1 file handle =       -997
 T2-number-of-boxes                   63

 t2 file size   =             2843
 t2 file name   = /tmp/tce_2emet_rohf.
 t2 file handle =       -995

 CCSD iterations
 -----------------------------------------------------------------
 Iter          Residuum       Correlation     Cpu    Wall    V2*C2
 -----------------------------------------------------------------
    1   0.1009164262999  -0.1600359538097     0.1     0.1     0.0
    2   0.0273735570494  -0.1688311913463     0.1     0.1     0.0
    3   0.0097863533262  -0.1711159983762     0.1     0.1     0.0
    4   0.0039049529791  -0.1717539986400     0.1     0.1     0.0
    5   0.0016393254432  -0.1719833017643     0.1     0.1     0.0
 MICROCYCLE DIIS UPDATE:                    5                    5
    6   0.0001727346053  -0.1721298575274     0.1     0.1     0.0
    7   0.0000719997564  -0.1721312504527     0.1     0.1     0.0
    8   0.0000326336416  -0.1721319823886     0.1     0.1     0.0
    9   0.0000172501414  -0.1721320578137     0.1     0.1     0.0
   10   0.0000090459278  -0.1721322108093     0.1     0.1     0.0
 MICROCYCLE DIIS UPDATE:                   10                    5
   11   0.0000010464673  -0.1721323971013     0.1     0.1     0.0
   12   0.0000003409317  -0.1721323802694     0.1     0.1     0.0
   13   0.0000001625235  -0.1721323864698     0.1     0.1     0.0
   14   0.0000000822801  -0.1721323866659     0.1     0.1     0.0
 -----------------------------------------------------------------
 Iterations converged
 CCSD correlation energy / hartree =        -0.172132386665942
 CCSD total energy / hartree       =       -75.799458471861485

 Singles contributions

 Doubles contributions

 Parallel integral file used       1 records with       0 large values


 Task  times  cpu:        2.3s     wall:        2.4s


                                NWChem Input Module
                                -------------------


 Summary of allocated global arrays
-----------------------------------
  No active global arrays



                         GA Statistics for process    0
                         ------------------------------

       create   destroy   get      put      acc     scatter   gather  read&inc
calls: 3523     3523     1.30e+06 3.28e+04 3.53e+05   27        0        0     
number of processes/call 1.00e+00 1.00e+00 1.00e+00 1.00e+00 0.00e+00
bytes total:             1.06e+09 3.14e+07 8.57e+07 8.64e+02 0.00e+00 0.00e+00
bytes remote:            0.00e+00 0.00e+00 0.00e+00 0.00e+00 0.00e+00 0.00e+00
Max memory consumed for GA by this process: 3614464 bytes

MA_summarize_allocated_blocks: starting scan ...
MA_summarize_allocated_blocks: scan completed: 0 heap blocks, 0 stack blocks
MA usage statistics:

	allocation statistics:
					      heap	     stack
					      ----	     -----
	current number of blocks	         0	         0
	maximum number of blocks	        18	        50
	current total bytes		         0	         0
	maximum total bytes		 398995856	  22509456
	maximum total K-bytes		    398996	     22510
	maximum total M-bytes		       399	        23


                                     CITATION
                                     --------
                Please cite the following reference when publishing
                           results obtained with NWChem:

                 M. Valiev, E.J. Bylaska, N. Govind, K. Kowalski,
              T.P. Straatsma, H.J.J. van Dam, D. Wang, J. Nieplocha,
                        E. Apra, T.L. Windus, W.A. de Jong
                 "NWChem: a comprehensive and scalable open-source
                  solution for large scale molecular simulations"
                      Comput. Phys. Commun. 181, 1477 (2010)
                           doi:10.1016/j.cpc.2010.04.018

                              AUTHORS & CONTRIBUTORS
                              ----------------------
  E. Apra, E. J. Bylaska, W. A. de Jong, N. Govind, K. Kowalski, T. P. Straatsma,
          M. Valiev, H. J. J. van Dam, D. Wang, T. L. Windus, J. Hammond,
    J. Autschbach, F. Aquino, S. Hirata, M. T. Hackler, J. Mullin, P. Nichols,
    R. Peverati, Y. Zhao, P.-D. Fan, R. J. Harrison, M. Dupuis, D. M. A. Smith,
    J. Nieplocha, V. Tipparaju, M. Krishnan, A. Vazquez-Mayagoitia, L. Jensen,
      M. Swart, Q. Wu, T. Van Voorhis, A. A. Auer, M. Nooijen, L. D. Crosby,
        E. Brown, G. Cisneros, G. I. Fann, H. Fruchtl, J. Garza, K. Hirao,
        R. Kendall, J. A. Nichols, K. Tsemekhman, K. Wolinski, J. Anchell,
       D. Bernholdt, P. Borowski, T. Clark, D. Clerc, H. Dachsel, M. Deegan,
        K. Dyall, D. Elwood, E. Glendening, M. Gutowski, A. Hess, J. Jaffe,
        B. Johnson, J. Ju, R. Kobayashi, R. Kutteh, Z. Lin, R. Littlefield,
   X. Long, B. Meng, T. Nakajima, S. Niu, L. Pollack, M. Rosing, K. Glaesemann,
          G. Sandrone, M. Stave, H. Taylor, G. Thomas, J. H. van Lenthe,
                                A. Wong, Z. Zhang.

 Total times  cpu:       18.3s     wall:       19.7s
