 argument  1 = /home/edo/park/nwchem-6.8/QA/tests/h2o_diag_to_cg_ub3lyp/h2o_diag_to_cg_ub3lyp.nw
 


============================== echo of input deck ==============================
echo
start h2o_diag_to_cg_dat

geometry units au
 O 0       0        0
 H 0       1.430   -1.107
 H 0      -1.430   -1.107
end
charge 1


basis
  O library 6-31g*
  H library 6-31g*
end

dft
  xc b3lyp
  mult 2
  iterations 2
  tolerances tight
  convergence energy 1d-8
end

task dft ignore

dft
  cgmin
  odft
  xc b3lyp
  iterations 15
  convergence nr 0.0
end

task dft
================================================================================


                                         
                                         
 
 
              Northwest Computational Chemistry Package (NWChem) 6.8
              ------------------------------------------------------
 
 
                    Environmental Molecular Sciences Laboratory
                       Pacific Northwest National Laboratory
                                Richland, WA 99352
 
                              Copyright (c) 1994-2017
                       Pacific Northwest National Laboratory
                            Battelle Memorial Institute
 
             NWChem is an open-source computational chemistry package
                        distributed under the terms of the
                      Educational Community License (ECL) 2.0
             A copy of the license is included with this distribution
                              in the LICENSE.TXT file
 
                                  ACKNOWLEDGMENT
                                  --------------

            This software and its documentation were developed at the
            EMSL at Pacific Northwest National Laboratory, a multiprogram
            national laboratory, operated for the U.S. Department of Energy
            by Battelle under Contract Number DE-AC05-76RL01830. Support
            for this work was provided by the Department of Energy Office
            of Biological and Environmental Research, Office of Basic
            Energy Sciences, and the Office of Advanced Scientific Computing.


           Job information
           ---------------

    hostname        = lagrange
    program         = /home/edo/park/nwchem-6.8/bin/LINUX64/nwchem
    date            = Wed Sep 13 15:31:38 2017

    compiled        = Wed_Sep_13_15:06:08_2017
    source          = /home/edo/park/nwchem-6.8
    nwchem branch   = 6.8
    nwchem revision = 29434
    ga revision     = N/A
    input           = /home/edo/park/nwchem-6.8/QA/tests/h2o_diag_to_cg_ub3lyp/h2o_diag_to_cg_ub3lyp.nw
    prefix          = h2o_diag_to_cg_dat.
    data base       = ./h2o_diag_to_cg_dat.db
    status          = startup
    nproc           =        3
    time left       =     -1s



           Memory information
           ------------------

    heap     =   13107196 doubles =    100.0 Mbytes
    stack    =   13107201 doubles =    100.0 Mbytes
    global   =   26214400 doubles =    200.0 Mbytes (distinct from heap & stack)
    total    =   52428797 doubles =    400.0 Mbytes
    verify   = yes
    hardfail = no 


           Directory information
           ---------------------
 
  0 permanent = .
  0 scratch   = .
 
 
 
 
                                NWChem Input Module
                                -------------------
 
 
 C2V symmetry detected

          ------
          auto-z
          ------
  no constraints, skipping   0.000000000000000E+000
  no constraints, skipping   0.000000000000000E+000
 
 
                             Geometry "geometry" -> ""
                             -------------------------
 
 Output coordinates in a.u. (scale by  1.000000000 to convert to a.u.)
 
  No.       Tag          Charge          X              Y              Z
 ---- ---------------- ---------- -------------- -------------- --------------
    1 O                    8.0000     0.00000000     0.00000000     0.22140000
    2 H                    1.0000    -1.43000000     0.00000000    -0.88560000
    3 H                    1.0000     1.43000000     0.00000000    -0.88560000
 
      Atomic Mass 
      ----------- 
 
      O                 15.994910
      H                  1.007825
 

 Effective nuclear repulsion energy (a.u.)       9.1971984402

            Nuclear Dipole moment (a.u.) 
            ----------------------------
        X                 Y               Z
 ---------------- ---------------- ----------------
     0.0000000000     0.0000000000     0.0000000000
 
      Symmetry information
      --------------------
 
 Group name             C2v       
 Group number             16
 Group order               4
 No. of unique centers     2
 
      Symmetry unique atoms
 
     1    2
 


                                Z-matrix (autoz)
                                -------- 

 Units are Angstrom for bonds and degrees for angles
 
      Type          Name      I     J     K     L     M      Value
      ----------- --------  ----- ----- ----- ----- ----- ----------
    1 Stretch                  1     2                       0.95697
    2 Stretch                  1     3                       0.95697
    3 Bend                     2     1     3               104.51124
 
 
            XYZ format geometry
            -------------------
     3
 geometry
 O                     0.00000000     0.00000000     0.11715984
 H                    -0.75672347     0.00000000    -0.46863937
 H                     0.75672347     0.00000000    -0.46863937
 
 ==============================================================================
                                internuclear distances
 ------------------------------------------------------------------------------
       center one      |      center two      | atomic units |       a.u.
 ------------------------------------------------------------------------------
    2 H                |   1 O                |     1.80841  |     1.80841
    3 H                |   1 O                |     1.80841  |     1.80841
 ------------------------------------------------------------------------------
                         number of included internuclear distances:          2
 ==============================================================================



 ==============================================================================
                                 internuclear angles
 ------------------------------------------------------------------------------
        center 1       |       center 2       |       center 3       |  degrees
 ------------------------------------------------------------------------------
    2 H                |   1 O                |   3 H                |   104.51
 ------------------------------------------------------------------------------
                            number of included internuclear angles:          1
 ==============================================================================



                      Basis "ao basis" -> "" (cartesian)
                      -----
  O (Oxygen)
  ----------
            Exponent  Coefficients 
       -------------- ---------------------------------------------------------
  1 S  5.48467170E+03  0.001831
  1 S  8.25234950E+02  0.013950
  1 S  1.88046960E+02  0.068445
  1 S  5.29645000E+01  0.232714
  1 S  1.68975700E+01  0.470193
  1 S  5.79963530E+00  0.358521
 
  2 S  1.55396160E+01 -0.110778
  2 S  3.59993360E+00 -0.148026
  2 S  1.01376180E+00  1.130767
 
  3 P  1.55396160E+01  0.070874
  3 P  3.59993360E+00  0.339753
  3 P  1.01376180E+00  0.727159
 
  4 S  2.70005800E-01  1.000000
 
  5 P  2.70005800E-01  1.000000
 
  6 D  8.00000000E-01  1.000000
 
  H (Hydrogen)
  ------------
            Exponent  Coefficients 
       -------------- ---------------------------------------------------------
  1 S  1.87311370E+01  0.033495
  1 S  2.82539370E+00  0.234727
  1 S  6.40121700E-01  0.813757
 
  2 S  1.61277800E-01  1.000000
 


 Summary of "ao basis" -> "" (cartesian)
 ------------------------------------------------------------------------------
       Tag                 Description            Shells   Functions and Types
 ---------------- ------------------------------  ------  ---------------------
 O                           6-31g*                  6       15   3s2p1d
 H                           6-31g*                  2        2   2s


 
                                 NWChem DFT Module
                                 -----------------
 
 


 Summary of "ao basis" -> "ao basis" (cartesian)
 ------------------------------------------------------------------------------
       Tag                 Description            Shells   Functions and Types
 ---------------- ------------------------------  ------  ---------------------
 O                           6-31g*                  6       15   3s2p1d
 H                           6-31g*                  2        2   2s


      Symmetry analysis of basis
      --------------------------
 
        a1         10
        a2          1
        b1          5
        b2          3
 
  Caching 1-el integrals 
  itol2e modified to match energy
  convergence criterion.
  tol_rho modified to match energy
  convergence criterion.
 
            General Information
            -------------------
          SCF calculation type: DFT
          Wavefunction type:  spin polarized.
          No. of atoms     :     3
          No. of electrons :     9
           Alpha electrons :     5
            Beta electrons :     4
          Charge           :     1
          Spin multiplicity:     2
          Use of symmetry is: on ; symmetry adaption is: on 
          Maximum number of iterations:   2
          AO basis - number of functions:    19
                     number of shells:    10
          Convergence on energy requested:  1.00D-08
          Convergence on density requested:  1.00D-05
          Convergence on gradient requested:  5.00D-04
 
              XC Information
              --------------
                         B3LYP Method XC Potential
                     Hartree-Fock (Exact) Exchange  0.200          
                        Slater Exchange Functional  0.800 local    
                    Becke 1988 Exchange Functional  0.720 non-local
              Lee-Yang-Parr Correlation Functional  0.810          
                  VWN I RPA Correlation Functional  0.190 local    
 
             Grid Information
             ----------------
          Grid used for XC integration:  medium    
          Radial quadrature: Mura-Knowles        
          Angular quadrature: Lebedev. 
          Tag              B.-S. Rad. Rad. Pts. Rad. Cut. Ang. Pts.
          ---              ---------- --------- --------- ---------
          O                   0.60       49           5.0       434
          H                   0.35       45           6.0       434
          Grid pruning is: on 
          Number of quadrature shells:    94
          Spatial weights used:  Erf1
 
          Convergence Information
          -----------------------
          Convergence aids based upon iterative change in 
          total energy or number of iterations. 
          Levelshifting, if invoked, occurs when the 
          HOMO/LUMO gap drops below (HL_TOL):  1.00D-02
          DIIS, if invoked, will attempt to extrapolate 
          using up to (NFOCK): 10 stored Fock matrices.

                    Damping( 0%)  Levelshifting(0.5)       DIIS
                  --------------- ------------------- ---------------
          dE  on:    start            ASAP                start   
          dE off:    2 iters          2 iters             2 iters 

 
      Screening Tolerance Information
      -------------------------------
          Density screening/tol_rho:  1.00D-11
          AO Gaussian exp screening on grid/accAOfunc:  18
          CD Gaussian exp screening on grid/accCDfunc:  20
          XC Gaussian exp screening on grid/accXCfunc:  20
          Schwarz screening/accCoul:  1.00D-09

 
      Superposition of Atomic Density Guess
      -------------------------------------
 
 Sum of atomic energies:         -75.75081731

 Renormalizing density from      10.00 to      9
 
      Non-variational initial energy
      ------------------------------

 Total energy =     -70.704093
 1-e energy   =    -109.563990
 2-e energy   =      29.662699
 HOMO         =      -1.167537
 LUMO         =      -0.290539
 
 
   Symmetry analysis of molecular orbitals - initial alpha
   -------------------------------------------------------
 
  Numbering of irreducible representations: 
 
     1 a1          2 a2          3 b1          4 b2      
 
  Orbital symmetries:
 
     1 a1          2 a1          3 b1          4 a1          5 b2      
     6 a1          7 b1          8 a1          9 b2         10 b1      
    11 a1         12 b1         13 a1         14 a1         15 a2      
 
 
   Symmetry analysis of molecular orbitals - initial beta
   ------------------------------------------------------
 
  Numbering of irreducible representations: 
 
     1 a1          2 a2          3 b1          4 b2      
 
  Orbital symmetries:
 
     1 a1          2 a1          3 b1          4 a1          5 b2      
     6 a1          7 b1          8 a1          9 b2         10 b1      
    11 a1         12 b1         13 a1         14 a1         15 a2      
 
   Time after variat. SCF:      1.1
   Time prior to 1st pass:      1.1

 #quartets = 1.009D+03 #integrals = 5.756D+03 #direct =  0.0% #cached =100.0%


 Integral file          = ./h2o_diag_to_cg_dat.aoints.0
 Record size in doubles =  65536        No. of integs per rec  =  43688
 Max. records in memory =      2        Max. records in file   =  57263
 No. of bits per label  =      8        No. of bits per value  =     64


File balance: exchanges=     0  moved=     0  time=   0.0


 Grid_pts file          = ./h2o_diag_to_cg_dat.gridpts.0
 Record size in doubles =  12289        No. of grid_pts per rec  =   3070
 Max. records in memory =      6        Max. recs in file   =    305384


           Memory utilization after 1st SCF pass: 
           Heap Space remaining (MW):       12.90            12900732
          Stack Space remaining (MW):       13.11            13106884

   convergence    iter        energy       DeltaE   RMS-Dens  Diis-err    time
 ---------------- ----- ----------------- --------- --------- ---------  ------
 d= 0,ls=0.0,diis     1    -75.8111565907 -8.50D+01  2.81D-02  4.40D-01     1.2
                                                     2.72D-02  4.17D-01
 d= 0,ls=0.0,diis     2    -75.7988609664  1.23D-02  1.64D-02  4.75D-01     1.2
                                                     1.45D-02  3.56D-01
 
      Calculation failed to converge
      ------------------------------
 


         Total DFT energy =      -75.798860966392
      One electron energy =     -115.498867723060
           Coulomb energy =       39.127697574001
    Exchange-Corr. energy =       -8.624889257530
 Nuclear repulsion energy =        9.197198440198

 Numeric. integr. density =        9.000000927417

     Total iterative time =      0.1s


 
                  Occupations of the irreducible representations
                  ----------------------------------------------
 
                     irrep           alpha         beta
                     --------     --------     --------
                     a1                3.0          3.0
                     a2                0.0          0.0
                     b1                1.0          1.0
                     b2                1.0          0.0
 
 
                    DFT Final Alpha Molecular Orbital Analysis
                    ------------------------------------------
 
 Vector    1  Occ=1.000000D+00  E=-1.974987D+01  Symmetry=a1
              MO Center= -1.6D-19, -8.4D-25,  1.2D-01, r^2= 1.5D-02
   Bfn.  Coefficient  Atom+Function         Bfn.  Coefficient  Atom+Function  
  ----- ------------  ---------------      ----- ------------  ---------------
     1      0.992649  1 O  s                  2      0.026766  1 O  s          
 
 Vector    2  Occ=1.000000D+00  E=-1.563452D+00  Symmetry=a1
              MO Center= -3.2D-17, -8.3D-18, -7.0D-02, r^2= 4.5D-01
   Bfn.  Coefficient  Atom+Function         Bfn.  Coefficient  Atom+Function  
  ----- ------------  ---------------      ----- ------------  ---------------
     2      0.526092  1 O  s                  6      0.423154  1 O  s          
     1     -0.217154  1 O  s                  5     -0.141366  1 O  pz         
    16      0.124047  2 H  s                 18      0.124047  3 H  s          
     9     -0.066533  1 O  pz         
 
 Vector    3  Occ=1.000000D+00  E=-1.032444D+00  Symmetry=b1
              MO Center=  1.7D-16, -2.9D-20, -5.8D-02, r^2= 6.3D-01
   Bfn.  Coefficient  Atom+Function         Bfn.  Coefficient  Atom+Function  
  ----- ------------  ---------------      ----- ------------  ---------------
     3      0.599194  1 O  px                 7      0.288072  1 O  px         
    16     -0.217450  2 H  s                 18      0.217450  3 H  s          
    12     -0.088375  1 O  dxz               17     -0.038175  2 H  s          
    19      0.038175  3 H  s          
 
 Vector    4  Occ=1.000000D+00  E=-8.998861D-01  Symmetry=b2
              MO Center= -6.1D-18, -1.1D-16,  9.5D-02, r^2= 4.9D-01
   Bfn.  Coefficient  Atom+Function         Bfn.  Coefficient  Atom+Function  
  ----- ------------  ---------------      ----- ------------  ---------------
     4      0.732640  1 O  py                 8      0.404998  1 O  py         
    14     -0.069203  1 O  dyz        
 
 Vector    5  Occ=1.000000D+00  E=-8.908890D-01  Symmetry=a1
              MO Center= -6.7D-17, -5.9D-16,  2.1D-01, r^2= 5.6D-01
   Bfn.  Coefficient  Atom+Function         Bfn.  Coefficient  Atom+Function  
  ----- ------------  ---------------      ----- ------------  ---------------
     5      0.634393  1 O  pz                 9      0.346604  1 O  pz         
     6      0.253102  1 O  s                  2      0.196986  1 O  s          
    16     -0.128848  2 H  s                 18     -0.128848  3 H  s          
     1     -0.077274  1 O  s                 15     -0.051396  1 O  dzz        
    17     -0.043333  2 H  s                 19     -0.043333  3 H  s          
 
 Vector    6  Occ=0.000000D+00  E=-2.856751D-01  Symmetry=a1
              MO Center=  1.1D-14, -1.6D-17, -6.1D-01, r^2= 2.2D+00
   Bfn.  Coefficient  Atom+Function         Bfn.  Coefficient  Atom+Function  
  ----- ------------  ---------------      ----- ------------  ---------------
     6      1.017981  1 O  s                 17     -0.866128  2 H  s          
    19     -0.866128  3 H  s                  9     -0.355177  1 O  pz         
     5     -0.300686  1 O  pz                 2      0.228986  1 O  s          
    16     -0.175455  2 H  s                 18     -0.175455  3 H  s          
     1     -0.095578  1 O  s                 10     -0.035516  1 O  dxx        
 
 Vector    7  Occ=0.000000D+00  E=-2.057045D-01  Symmetry=b1
              MO Center= -1.1D-14,  3.2D-18, -5.4D-01, r^2= 2.2D+00
   Bfn.  Coefficient  Atom+Function         Bfn.  Coefficient  Atom+Function  
  ----- ------------  ---------------      ----- ------------  ---------------
    17      1.135975  2 H  s                 19     -1.135975  3 H  s          
     7      0.619317  1 O  px                 3      0.459231  1 O  px         
    16      0.221716  2 H  s                 18     -0.221716  3 H  s          
 
 Vector    8  Occ=0.000000D+00  E= 3.743413D-01  Symmetry=b1
              MO Center= -2.9D-14, -1.4D-17, -1.6D-01, r^2= 1.8D+00
   Bfn.  Coefficient  Atom+Function         Bfn.  Coefficient  Atom+Function  
  ----- ------------  ---------------      ----- ------------  ---------------
    16      0.800733  2 H  s                 18     -0.800733  3 H  s          
    17     -0.760640  2 H  s                 19      0.760640  3 H  s          
    12      0.394988  1 O  dxz                7      0.365968  1 O  px         
     3      0.130630  1 O  px         
 
 Vector    9  Occ=0.000000D+00  E= 3.896244D-01  Symmetry=b2
              MO Center= -1.8D-17,  9.4D-16,  1.1D-01, r^2= 1.2D+00
   Bfn.  Coefficient  Atom+Function         Bfn.  Coefficient  Atom+Function  
  ----- ------------  ---------------      ----- ------------  ---------------
     8      1.081532  1 O  py                 4     -0.894023  1 O  py         
    14     -0.050983  1 O  dyz        
 
 Vector   10  Occ=0.000000D+00  E= 4.161082D-01  Symmetry=a1
              MO Center=  1.0D-15, -1.6D-15,  5.5D-02, r^2= 1.4D+00
   Bfn.  Coefficient  Atom+Function         Bfn.  Coefficient  Atom+Function  
  ----- ------------  ---------------      ----- ------------  ---------------
     5      0.759089  1 O  pz                 9     -0.619051  1 O  pz         
    16      0.565615  2 H  s                 18      0.565615  3 H  s          
    17     -0.517597  2 H  s                 19     -0.517597  3 H  s          
    10      0.202429  1 O  dxx                6     -0.126891  1 O  s          
     2      0.089067  1 O  s                 15      0.086519  1 O  dzz        
 
 Vector   11  Occ=0.000000D+00  E= 4.747122D-01  Symmetry=a1
              MO Center=  3.4D-14,  5.2D-15,  4.6D-02, r^2= 1.6D+00
   Bfn.  Coefficient  Atom+Function         Bfn.  Coefficient  Atom+Function  
  ----- ------------  ---------------      ----- ------------  ---------------
     6      1.075493  1 O  s                  9      0.808492  1 O  pz         
     2     -0.680777  1 O  s                 16      0.619004  2 H  s          
    18      0.619004  3 H  s                 17     -0.448077  2 H  s          
    19     -0.448077  3 H  s                  5     -0.404840  1 O  pz         
    13     -0.326842  1 O  dyy               15     -0.205742  1 O  dzz        
 
 Vector   12  Occ=0.000000D+00  E= 6.302133D-01  Symmetry=b1
              MO Center= -6.1D-16, -5.4D-17,  5.2D-02, r^2= 1.7D+00
   Bfn.  Coefficient  Atom+Function         Bfn.  Coefficient  Atom+Function  
  ----- ------------  ---------------      ----- ------------  ---------------
     7      1.713585  1 O  px                17      1.065576  2 H  s          
    19     -1.065576  3 H  s                  3     -0.929356  1 O  px         
    12      0.029537  1 O  dxz        
 
 Vector   13  Occ=0.000000D+00  E= 7.519890D-01  Symmetry=a1
              MO Center= -5.5D-15, -4.9D-17, -3.7D-01, r^2= 1.6D+00
   Bfn.  Coefficient  Atom+Function         Bfn.  Coefficient  Atom+Function  
  ----- ------------  ---------------      ----- ------------  ---------------
     6      3.676308  1 O  s                  2     -1.516718  1 O  s          
     9     -1.023546  1 O  pz                17     -0.881292  2 H  s          
    19     -0.881292  3 H  s                 10     -0.641837  1 O  dxx        
    15     -0.368318  1 O  dzz                5      0.347156  1 O  pz         
    16     -0.253747  2 H  s                 18     -0.253747  3 H  s          
 
 Vector   14  Occ=0.000000D+00  E= 1.199926D+00  Symmetry=a2
              MO Center=  5.1D-17,  6.5D-17,  1.2D-01, r^2= 6.1D-01
   Bfn.  Coefficient  Atom+Function         Bfn.  Coefficient  Atom+Function  
  ----- ------------  ---------------      ----- ------------  ---------------
    11      1.732051  1 O  dxy        
 
 Vector   15  Occ=0.000000D+00  E= 1.224346D+00  Symmetry=a1
              MO Center=  1.6D-17,  1.6D-16,  1.7D-01, r^2= 6.2D-01
   Bfn.  Coefficient  Atom+Function         Bfn.  Coefficient  Atom+Function  
  ----- ------------  ---------------      ----- ------------  ---------------
    15      0.999667  1 O  dzz               10     -0.559688  1 O  dxx        
    13     -0.418696  1 O  dyy                6     -0.158910  1 O  s          
     9      0.119996  1 O  pz                 2      0.073351  1 O  s          
    16      0.041996  2 H  s                 18      0.041996  3 H  s          
    17      0.038367  2 H  s                 19      0.038367  3 H  s          
 
 Vector   16  Occ=0.000000D+00  E= 1.238473D+00  Symmetry=b2
              MO Center= -2.8D-17, -3.9D-15,  1.5D-01, r^2= 6.1D-01
   Bfn.  Coefficient  Atom+Function         Bfn.  Coefficient  Atom+Function  
  ----- ------------  ---------------      ----- ------------  ---------------
    14      1.729917  1 O  dyz                8      0.048075  1 O  py         
 
 Vector   17  Occ=0.000000D+00  E= 1.781576D+00  Symmetry=a1
              MO Center= -2.3D-16,  8.8D-18, -2.0D-02, r^2= 8.7D-01
   Bfn.  Coefficient  Atom+Function         Bfn.  Coefficient  Atom+Function  
  ----- ------------  ---------------      ----- ------------  ---------------
     6      1.703162  1 O  s                 13     -1.116379  1 O  dyy        
    16     -0.875445  2 H  s                 18     -0.875445  3 H  s          
     9     -0.800090  1 O  pz                10      0.751985  1 O  dxx        
     2     -0.533867  1 O  s                 17     -0.166236  2 H  s          
    19     -0.166236  3 H  s                  1     -0.062495  1 O  s          
 
 Vector   18  Occ=0.000000D+00  E= 2.120242D+00  Symmetry=b1
              MO Center=  6.9D-17,  1.5D-19,  5.9D-02, r^2= 8.9D-01
   Bfn.  Coefficient  Atom+Function         Bfn.  Coefficient  Atom+Function  
  ----- ------------  ---------------      ----- ------------  ---------------
    12      2.216985  1 O  dxz               16     -0.969992  2 H  s          
    18      0.969992  3 H  s                  7     -0.897004  1 O  px         
    17      0.046107  2 H  s                 19     -0.046107  3 H  s          
     3      0.031708  1 O  px         
 
 Vector   19  Occ=0.000000D+00  E= 3.055151D+00  Symmetry=a1
              MO Center=  2.7D-16, -1.2D-19,  1.1D-01, r^2= 1.1D+00
   Bfn.  Coefficient  Atom+Function         Bfn.  Coefficient  Atom+Function  
  ----- ------------  ---------------      ----- ------------  ---------------
     6      3.837893  1 O  s                 13     -1.585643  1 O  dyy        
    15     -1.577556  1 O  dzz               10     -1.554408  1 O  dxx        
    17     -0.594262  2 H  s                 19     -0.594262  3 H  s          
     1     -0.470202  1 O  s                  9     -0.344901  1 O  pz         
     2      0.221812  1 O  s                 16      0.128485  2 H  s          
 
 
                     DFT Final Beta Molecular Orbital Analysis
                     -----------------------------------------
 
 Vector    1  Occ=1.000000D+00  E=-1.972527D+01  Symmetry=a1
              MO Center=  2.8D-19,  1.0D-24,  1.2D-01, r^2= 1.5D-02
   Bfn.  Coefficient  Atom+Function         Bfn.  Coefficient  Atom+Function  
  ----- ------------  ---------------      ----- ------------  ---------------
     1      0.993119  1 O  s                  2      0.025451  1 O  s          
 
 Vector    2  Occ=1.000000D+00  E=-1.495242D+00  Symmetry=a1
              MO Center= -4.2D-16, -1.9D-17, -9.0D-02, r^2= 4.6D-01
   Bfn.  Coefficient  Atom+Function         Bfn.  Coefficient  Atom+Function  
  ----- ------------  ---------------      ----- ------------  ---------------
     2      0.501892  1 O  s                  6      0.422172  1 O  s          
     1     -0.211788  1 O  s                  5     -0.148665  1 O  pz         
    16      0.135273  2 H  s                 18      0.135273  3 H  s          
     9     -0.070284  1 O  pz                10      0.028058  1 O  dxx        
    15      0.025553  1 O  dzz        
 
 Vector    3  Occ=1.000000D+00  E=-1.010676D+00  Symmetry=b1
              MO Center=  1.9D-16,  1.6D-20, -6.8D-02, r^2= 6.5D-01
   Bfn.  Coefficient  Atom+Function         Bfn.  Coefficient  Atom+Function  
  ----- ------------  ---------------      ----- ------------  ---------------
     3      0.585884  1 O  px                 7      0.283748  1 O  px         
    16     -0.227235  2 H  s                 18      0.227235  3 H  s          
    12     -0.085456  1 O  dxz               17     -0.046790  2 H  s          
    19      0.046790  3 H  s          
 
 Vector    4  Occ=1.000000D+00  E=-8.608245D-01  Symmetry=a1
              MO Center=  1.8D-16,  3.6D-17,  2.3D-01, r^2= 5.6D-01
   Bfn.  Coefficient  Atom+Function         Bfn.  Coefficient  Atom+Function  
  ----- ------------  ---------------      ----- ------------  ---------------
     5      0.622807  1 O  pz                 9      0.350918  1 O  pz         
     6      0.278056  1 O  s                  2      0.201893  1 O  s          
    16     -0.128984  2 H  s                 18     -0.128984  3 H  s          
     1     -0.082239  1 O  s                 17     -0.046371  2 H  s          
    19     -0.046371  3 H  s                 15     -0.045763  1 O  dzz        
 
 Vector    5  Occ=0.000000D+00  E=-6.389548D-01  Symmetry=b2
              MO Center=  6.4D-18, -1.9D-16,  9.5D-02, r^2= 5.7D-01
   Bfn.  Coefficient  Atom+Function         Bfn.  Coefficient  Atom+Function  
  ----- ------------  ---------------      ----- ------------  ---------------
     4      0.662914  1 O  py                 8      0.485804  1 O  py         
    14     -0.067405  1 O  dyz        
 
 Vector    6  Occ=0.000000D+00  E=-2.747241D-01  Symmetry=a1
              MO Center=  2.5D-15,  1.6D-17, -6.2D-01, r^2= 2.2D+00
   Bfn.  Coefficient  Atom+Function         Bfn.  Coefficient  Atom+Function  
  ----- ------------  ---------------      ----- ------------  ---------------
     6      1.066395  1 O  s                 17     -0.883651  2 H  s          
    19     -0.883651  3 H  s                  9     -0.366613  1 O  pz         
     5     -0.298012  1 O  pz                 2      0.217128  1 O  s          
    16     -0.166909  2 H  s                 18     -0.166909  3 H  s          
     1     -0.098776  1 O  s                 10     -0.030401  1 O  dxx        
 
 Vector    7  Occ=0.000000D+00  E=-1.992571D-01  Symmetry=b1
              MO Center= -2.9D-15, -3.7D-21, -5.4D-01, r^2= 2.2D+00
   Bfn.  Coefficient  Atom+Function         Bfn.  Coefficient  Atom+Function  
  ----- ------------  ---------------      ----- ------------  ---------------
    17      1.148300  2 H  s                 19     -1.148300  3 H  s          
     7      0.637147  1 O  px                 3      0.460026  1 O  px         
    16      0.214087  2 H  s                 18     -0.214087  3 H  s          
 
 Vector    8  Occ=0.000000D+00  E= 3.769720D-01  Symmetry=b1
              MO Center=  3.4D-14, -5.1D-17, -1.6D-01, r^2= 1.8D+00
   Bfn.  Coefficient  Atom+Function         Bfn.  Coefficient  Atom+Function  
  ----- ------------  ---------------      ----- ------------  ---------------
    16      0.802351  2 H  s                 18     -0.802351  3 H  s          
    17     -0.756472  2 H  s                 19      0.756472  3 H  s          
    12      0.390882  1 O  dxz                7      0.370017  1 O  px         
     3      0.136923  1 O  px         
 
 Vector    9  Occ=0.000000D+00  E= 4.329943D-01  Symmetry=a1
              MO Center= -3.7D-14,  1.8D-16,  1.0D-01, r^2= 1.4D+00
   Bfn.  Coefficient  Atom+Function         Bfn.  Coefficient  Atom+Function  
  ----- ------------  ---------------      ----- ------------  ---------------
     5      0.791817  1 O  pz                 9     -0.661651  1 O  pz         
    16      0.539047  2 H  s                 18      0.539047  3 H  s          
    17     -0.497552  2 H  s                 19     -0.497552  3 H  s          
    10      0.189669  1 O  dxx                6     -0.154218  1 O  s          
     2      0.094976  1 O  s                 15      0.080333  1 O  dzz        
 
 Vector   10  Occ=0.000000D+00  E= 4.816492D-01  Symmetry=b2
              MO Center= -8.1D-18, -1.2D-16,  1.1D-01, r^2= 1.1D+00
   Bfn.  Coefficient  Atom+Function         Bfn.  Coefficient  Atom+Function  
  ----- ------------  ---------------      ----- ------------  ---------------
     8      1.047843  1 O  py                 4     -0.946883  1 O  py         
    14     -0.043797  1 O  dyz        
 
 Vector   11  Occ=0.000000D+00  E= 4.945733D-01  Symmetry=a1
              MO Center=  3.3D-15,  2.1D-16, -1.4D-02, r^2= 1.6D+00
   Bfn.  Coefficient  Atom+Function         Bfn.  Coefficient  Atom+Function  
  ----- ------------  ---------------      ----- ------------  ---------------
     6      1.061668  1 O  s                  9      0.781279  1 O  pz         
     2     -0.694743  1 O  s                 16      0.662388  2 H  s          
    18      0.662388  3 H  s                 17     -0.469836  2 H  s          
    19     -0.469836  3 H  s                  5     -0.362699  1 O  pz         
    13     -0.305343  1 O  dyy               15     -0.224764  1 O  dzz        
 
 Vector   12  Occ=0.000000D+00  E= 6.435514D-01  Symmetry=b1
              MO Center= -1.4D-15, -2.2D-17,  5.6D-02, r^2= 1.7D+00
   Bfn.  Coefficient  Atom+Function         Bfn.  Coefficient  Atom+Function  
  ----- ------------  ---------------      ----- ------------  ---------------
     7      1.706444  1 O  px                17      1.055003  2 H  s          
    19     -1.055003  3 H  s                  3     -0.936534  1 O  px         
    12      0.031590  1 O  dxz        
 
 Vector   13  Occ=0.000000D+00  E= 7.814951D-01  Symmetry=a1
              MO Center=  6.9D-16,  1.1D-16, -3.7D-01, r^2= 1.5D+00
   Bfn.  Coefficient  Atom+Function         Bfn.  Coefficient  Atom+Function  
  ----- ------------  ---------------      ----- ------------  ---------------
     6      3.705014  1 O  s                  2     -1.512753  1 O  s          
     9     -1.025111  1 O  pz                17     -0.867443  2 H  s          
    19     -0.867443  3 H  s                 10     -0.662129  1 O  dxx        
    15     -0.360046  1 O  dzz                5      0.341371  1 O  pz         
    16     -0.275061  2 H  s                 18     -0.275061  3 H  s          
 
 Vector   14  Occ=0.000000D+00  E= 1.249670D+00  Symmetry=a1
              MO Center=  7.2D-17,  5.7D-18,  1.8D-01, r^2= 6.2D-01
   Bfn.  Coefficient  Atom+Function         Bfn.  Coefficient  Atom+Function  
  ----- ------------  ---------------      ----- ------------  ---------------
    15      1.009402  1 O  dzz               10     -0.572588  1 O  dxx        
    13     -0.363234  1 O  dyy                6     -0.317262  1 O  s          
     9      0.183046  1 O  pz                 2      0.110713  1 O  s          
    16      0.102594  2 H  s                 18      0.102594  3 H  s          
    17      0.056350  2 H  s                 19      0.056350  3 H  s          
 
 Vector   15  Occ=0.000000D+00  E= 1.264436D+00  Symmetry=a2
              MO Center=  1.4D-16,  7.3D-17,  1.2D-01, r^2= 6.1D-01
   Bfn.  Coefficient  Atom+Function         Bfn.  Coefficient  Atom+Function  
  ----- ------------  ---------------      ----- ------------  ---------------
    11      1.732051  1 O  dxy        
 
 Vector   16  Occ=0.000000D+00  E= 1.302297D+00  Symmetry=b2
              MO Center= -1.4D-16, -2.3D-16,  1.5D-01, r^2= 6.1D-01
   Bfn.  Coefficient  Atom+Function         Bfn.  Coefficient  Atom+Function  
  ----- ------------  ---------------      ----- ------------  ---------------
    14      1.730185  1 O  dyz                8      0.045450  1 O  py         
 
 Vector   17  Occ=0.000000D+00  E= 1.840278D+00  Symmetry=a1
              MO Center=  3.5D-18,  2.5D-18, -1.0D-02, r^2= 8.5D-01
   Bfn.  Coefficient  Atom+Function         Bfn.  Coefficient  Atom+Function  
  ----- ------------  ---------------      ----- ------------  ---------------
     6      1.641457  1 O  s                 13     -1.131233  1 O  dyy        
    16     -0.849004  2 H  s                 18     -0.849004  3 H  s          
     9     -0.772258  1 O  pz                10      0.742798  1 O  dxx        
     2     -0.540494  1 O  s                 17     -0.161304  2 H  s          
    19     -0.161304  3 H  s                  5      0.058188  1 O  pz         
 
 Vector   18  Occ=0.000000D+00  E= 2.132311D+00  Symmetry=b1
              MO Center=  1.2D-16,  4.0D-21,  5.9D-02, r^2= 8.9D-01
   Bfn.  Coefficient  Atom+Function         Bfn.  Coefficient  Atom+Function  
  ----- ------------  ---------------      ----- ------------  ---------------
    12      2.217817  1 O  dxz               16     -0.968119  2 H  s          
    18      0.968119  3 H  s                  7     -0.897847  1 O  px         
    17      0.044548  2 H  s                 19     -0.044548  3 H  s          
     3      0.031203  1 O  px         
 
 Vector   19  Occ=0.000000D+00  E= 3.097285D+00  Symmetry=a1
              MO Center=  0.0D+00,  5.3D-19,  1.1D-01, r^2= 1.1D+00
   Bfn.  Coefficient  Atom+Function         Bfn.  Coefficient  Atom+Function  
  ----- ------------  ---------------      ----- ------------  ---------------
     6      3.815372  1 O  s                 13     -1.590263  1 O  dyy        
    15     -1.570311  1 O  dzz               10     -1.547097  1 O  dxx        
    17     -0.589001  2 H  s                 19     -0.589001  3 H  s          
     1     -0.469886  1 O  s                  9     -0.342540  1 O  pz         
     2      0.234937  1 O  s                 16      0.125726  2 H  s          
 

   alpha - beta orbital overlaps 
   ----------------------------- 


   alpha      1      2      3      4      5      6      7      8      9     10
    beta      1      2      3      5      4      6      7      8     10      9
 overlap   1.000  0.999  1.000  0.997  1.000  1.000  1.000  1.000  0.997  0.998


   alpha     11     12     13     14     15     16     17     18     19
    beta     11     12     13     15     14     16     17     18     19
 overlap   0.998  1.000  0.999  1.000  0.999  1.000  0.998  1.000  1.000

     --------------------------
     Expectation value of S2:  
     --------------------------
      <S2> =      0.7516 (Exact =     0.7500)
 

 center of mass
 --------------
 x =   0.00000000 y =   0.00000000 z =   0.09751021

 moments of inertia (a.u.)
 ------------------
           2.193637940261           0.000000000000           0.000000000000
           0.000000000000           6.315440625261           0.000000000000
           0.000000000000           0.000000000000           4.121802685000
 
     Multipole analysis of the density
     ---------------------------------
 
     L   x y z        total         alpha         beta         nuclear
     -   - - -        -----         -----         ----         -------
     0   0 0 0      1.000000     -5.000000     -4.000000     10.000000
 
     1   1 0 0      0.000000      0.000000      0.000000      0.000000
     1   0 1 0      0.000000      0.000000      0.000000      0.000000
     1   0 0 1     -0.916976     -0.557098     -0.359878      0.000000
 
     2   2 0 0     -1.571335     -2.955816     -2.705318      4.089800
     2   1 1 0      0.000000      0.000000      0.000000      0.000000
     2   1 0 1     -0.000000     -0.000000      0.000000      0.000000
     2   0 2 0     -3.503329     -2.279410     -1.223919      0.000000
     2   0 1 1      0.000000      0.000000      0.000000      0.000000
     2   0 0 2     -3.159156     -2.714908     -2.404966      1.960718
 

 Parallel integral file used       3 records with       0 large values

  !! warning: dft energy failed

 Task  times  cpu:        0.1s     wall:        0.1s
 
 
                                NWChem Input Module
                                -------------------
 
 
 
                                 NWChem DFT Module
                                 -----------------
 
 


 Summary of "ao basis" -> "ao basis" (cartesian)
 ------------------------------------------------------------------------------
       Tag                 Description            Shells   Functions and Types
 ---------------- ------------------------------  ------  ---------------------
 O                           6-31g*                  6       15   3s2p1d
 H                           6-31g*                  2        2   2s


      Symmetry analysis of basis
      --------------------------
 
        a1         10
        a2          1
        b1          5
        b2          3
 
  Caching 1-el integrals 
 
            General Information
            -------------------
          SCF calculation type: DFT
          Wavefunction type:  spin polarized.
          No. of atoms     :     3
          No. of electrons :     9
           Alpha electrons :     5
            Beta electrons :     4
          Charge           :     1
          Spin multiplicity:     2
          Use of symmetry is: on ; symmetry adaption is: on 
          Maximum number of iterations:  15
          AO basis - number of functions:    19
                     number of shells:    10
          Convergence on energy requested:  1.00D-08
          Convergence on density requested:  1.00D-05
          Convergence on gradient requested:  5.00D-04
 
              XC Information
              --------------
                         B3LYP Method XC Potential
                     Hartree-Fock (Exact) Exchange  0.200          
                        Slater Exchange Functional  0.800 local    
                    Becke 1988 Exchange Functional  0.720 non-local
              Lee-Yang-Parr Correlation Functional  0.810          
                  VWN I RPA Correlation Functional  0.190 local    
 
             Grid Information
             ----------------
          Grid used for XC integration:  medium    
          Radial quadrature: Mura-Knowles        
          Angular quadrature: Lebedev. 
          Tag              B.-S. Rad. Rad. Pts. Rad. Cut. Ang. Pts.
          ---              ---------- --------- --------- ---------
          O                   0.60       49           5.0       434
          H                   0.35       45           6.0       434
          Grid pruning is: on 
          Number of quadrature shells:    94
          Spatial weights used:  Erf1
 
          Convergence Information
          -----------------------
          Convergence aids based upon iterative change in 
          total energy or number of iterations. 
          Levelshifting, if invoked, occurs when the 
          HOMO/LUMO gap drops below (HL_TOL):  1.00D-02
          DIIS, if invoked, will attempt to extrapolate 
          using up to (NFOCK): 10 stored Fock matrices.

                    Damping( 0%)  Levelshifting(0.5)       DIIS
                  --------------- ------------------- ---------------
          dE  on:    start            ASAP                start   
          dE off:    2 iters          2 iters             2 iters 

 
      Screening Tolerance Information
      -------------------------------
          Density screening/tol_rho:  1.00D-11
          AO Gaussian exp screening on grid/accAOfunc:  18
          CD Gaussian exp screening on grid/accCDfunc:  20
          XC Gaussian exp screening on grid/accXCfunc:  20
          Schwarz screening/accCoul:  1.00D-09


 Loading old vectors from job with title :



 
   Symmetry analysis of molecular orbitals - initial alpha
   -------------------------------------------------------
 
  Numbering of irreducible representations: 
 
     1 a1          2 a2          3 b1          4 b2      
 
  Orbital symmetries:
 
     1 a1          2 a1          3 b1          4 b2          5 a1      
     6 a1          7 b1          8 b1          9 b2         10 a1      
    11 a1         12 b1         13 a1         14 a2         15 a1      
 
 
   Symmetry analysis of molecular orbitals - initial beta
   ------------------------------------------------------
 
  Numbering of irreducible representations: 
 
     1 a1          2 a2          3 b1          4 b2      
 
  Orbital symmetries:
 
     1 a1          2 a1          3 b1          4 a1          5 b2      
     6 a1          7 b1          8 b1          9 a1         10 b2      
    11 a1         12 b1         13 a1         14 a1         15 a2      
 


 ----------------------------------------------
         Quadratically convergent UKS

 Convergence threshold     :          5.000E-04
 Maximum no. of iterations :           15
 Integral*density screening:          1.000E-09

 PCG initial level shift   :              5.000
 PCG change shift at maxg  :              0.500
 PCG final level shift     :              0.000
 NR  initial level shift   :              0.000
 NR  change shift at maxg  :              0.000
 NR  final level shift     :              0.000
 NR  enabled at maxg       :              0.000
 ----------------------------------------------


 #quartets = 1.009D+03 #integrals = 5.756D+03 #direct =  0.0% #cached =100.0%


 Integral file          = ./h2o_diag_to_cg_dat.aoints.0
 Record size in doubles =  65536        No. of integs per rec  =  43688
 Max. records in memory =      2        Max. records in file   =  57263
 No. of bits per label  =      8        No. of bits per value  =     64


File balance: exchanges=     0  moved=     0  time=   0.0


 Grid_pts file          = ./h2o_diag_to_cg_dat.gridpts.0
 Record size in doubles =  12289        No. of grid_pts per rec  =   3070
 Max. records in memory =      6        Max. recs in file   =    305384


              iter       energy          gnorm     gmax       time
             ----- ------------------- --------- --------- --------
                 1      -75.9521348753  8.21D-02  2.63D-02      0.2
                 2      -75.9527657966  1.26D-02  4.31D-03      0.2
                 3      -75.9527902670  3.43D-03  1.13D-03      0.2
                 4      -75.9527925691  1.14D-03  3.93D-04      0.2
                 5      -75.9527928894  4.75D-04  1.98D-04      0.3


         Total DFT energy =      -75.952792889401
      One electron energy =     -118.045525745127
           Coulomb energy =       41.865375036656
    Exchange-Corr. energy =       -8.969840621128
 Nuclear repulsion energy =        9.197198440198

 Numeric. integr. density =        9.000001172694

     Total iterative time =      0.1s


 
                    DFT Final Alpha Molecular Orbital Analysis
                    ------------------------------------------
 
 Vector    1  Occ=1.000000D+00  E=-1.972095D+01  Symmetry=a1
              MO Center= -1.4D-19,  1.2D-20,  1.2D-01, r^2= 1.5D-02
   Bfn.  Coefficient  Atom+Function         Bfn.  Coefficient  Atom+Function  
  ----- ------------  ---------------      ----- ------------  ---------------
     1      0.992619  1 O  s                  2      0.026860  1 O  s          
 
 Vector    2  Occ=1.000000D+00  E=-1.544924D+00  Symmetry=a1
              MO Center= -3.0D-17, -1.6D-17, -6.9D-02, r^2= 4.5D-01
   Bfn.  Coefficient  Atom+Function         Bfn.  Coefficient  Atom+Function  
  ----- ------------  ---------------      ----- ------------  ---------------
     2      0.524309  1 O  s                  6      0.425214  1 O  s          
     1     -0.217184  1 O  s                  5     -0.138028  1 O  pz         
    16      0.124499  2 H  s                 18      0.124499  3 H  s          
     9     -0.065463  1 O  pz         
 
 Vector    3  Occ=1.000000D+00  E=-1.016222D+00  Symmetry=b1
              MO Center=  2.9D-17,  8.3D-36, -6.0D-02, r^2= 6.4D-01
   Bfn.  Coefficient  Atom+Function         Bfn.  Coefficient  Atom+Function  
  ----- ------------  ---------------      ----- ------------  ---------------
     3      0.595232  1 O  px                 7      0.288699  1 O  px         
    16     -0.218739  2 H  s                 18      0.218739  3 H  s          
    12     -0.086298  1 O  dxz               17     -0.041180  2 H  s          
    19      0.041180  3 H  s          
 
 Vector    4  Occ=1.000000D+00  E=-8.843197D-01  Symmetry=b2
              MO Center= -6.8D-18, -9.8D-17,  9.6D-02, r^2= 4.9D-01
   Bfn.  Coefficient  Atom+Function         Bfn.  Coefficient  Atom+Function  
  ----- ------------  ---------------      ----- ------------  ---------------
     4      0.730519  1 O  py                 8      0.407624  1 O  py         
    14     -0.067134  1 O  dyz        
 
 Vector    5  Occ=1.000000D+00  E=-8.761238D-01  Symmetry=a1
              MO Center=  1.0D-17, -5.8D-16,  2.1D-01, r^2= 5.7D-01
   Bfn.  Coefficient  Atom+Function         Bfn.  Coefficient  Atom+Function  
  ----- ------------  ---------------      ----- ------------  ---------------
     5      0.631180  1 O  pz                 9      0.349138  1 O  pz         
     6      0.255616  1 O  s                  2      0.194295  1 O  s          
    16     -0.130327  2 H  s                 18     -0.130327  3 H  s          
     1     -0.076757  1 O  s                 15     -0.050481  1 O  dzz        
    17     -0.044751  2 H  s                 19     -0.044751  3 H  s          
 
 Vector    6  Occ=0.000000D+00  E=-2.779871D-01  Symmetry=a1
              MO Center=  7.3D-17,  8.1D-19, -6.1D-01, r^2= 2.2D+00
   Bfn.  Coefficient  Atom+Function         Bfn.  Coefficient  Atom+Function  
  ----- ------------  ---------------      ----- ------------  ---------------
     6      1.033301  1 O  s                 17     -0.874514  2 H  s          
    19     -0.874514  3 H  s                  9     -0.362948  1 O  pz         
     5     -0.296523  1 O  pz                 2      0.222232  1 O  s          
    16     -0.169970  2 H  s                 18     -0.169970  3 H  s          
     1     -0.095676  1 O  s                 10     -0.035467  1 O  dxx        
 
 Vector    7  Occ=0.000000D+00  E=-1.973380D-01  Symmetry=b1
              MO Center= -2.9D-17,  3.6D-32, -5.4D-01, r^2= 2.2D+00
   Bfn.  Coefficient  Atom+Function         Bfn.  Coefficient  Atom+Function  
  ----- ------------  ---------------      ----- ------------  ---------------
    17      1.148977  2 H  s                 19     -1.148977  3 H  s          
     7      0.629282  1 O  px                 3      0.454406  1 O  px         
    16      0.214210  2 H  s                 18     -0.214210  3 H  s          
 
 Vector    8  Occ=0.000000D+00  E= 3.841547D-01  Symmetry=b1
              MO Center= -5.8D-17,  4.4D-32, -1.6D-01, r^2= 1.7D+00
   Bfn.  Coefficient  Atom+Function         Bfn.  Coefficient  Atom+Function  
  ----- ------------  ---------------      ----- ------------  ---------------
    16      0.804194  2 H  s                 18     -0.804194  3 H  s          
    17     -0.748011  2 H  s                 19      0.748011  3 H  s          
    12      0.391315  1 O  dxz                7      0.378358  1 O  px         
     3      0.130405  1 O  px         
 
 Vector    9  Occ=0.000000D+00  E= 4.011472D-01  Symmetry=b2
              MO Center= -1.8D-17,  8.9D-16,  1.1D-01, r^2= 1.2D+00
   Bfn.  Coefficient  Atom+Function         Bfn.  Coefficient  Atom+Function  
  ----- ------------  ---------------      ----- ------------  ---------------
     8      1.080604  1 O  py                 4     -0.895757  1 O  py         
    14     -0.049490  1 O  dyz        
 
 Vector   10  Occ=0.000000D+00  E= 4.288917D-01  Symmetry=a1
              MO Center=  5.5D-17, -1.6D-15,  6.3D-02, r^2= 1.4D+00
   Bfn.  Coefficient  Atom+Function         Bfn.  Coefficient  Atom+Function  
  ----- ------------  ---------------      ----- ------------  ---------------
     5      0.765320  1 O  pz                 9     -0.617919  1 O  pz         
    16      0.563339  2 H  s                 18      0.563339  3 H  s          
    17     -0.505297  2 H  s                 19     -0.505297  3 H  s          
    10      0.203410  1 O  dxx                6     -0.152674  1 O  s          
     2      0.097192  1 O  s                 15      0.088783  1 O  dzz        
 
 Vector   11  Occ=0.000000D+00  E= 4.840197D-01  Symmetry=a1
              MO Center=  6.3D-18,  1.5D-15,  4.0D-02, r^2= 1.6D+00
   Bfn.  Coefficient  Atom+Function         Bfn.  Coefficient  Atom+Function  
  ----- ------------  ---------------      ----- ------------  ---------------
     6      1.097299  1 O  s                  9      0.798145  1 O  pz         
     2     -0.690369  1 O  s                 16      0.623195  2 H  s          
    18      0.623195  3 H  s                 17     -0.455627  2 H  s          
    19     -0.455627  3 H  s                  5     -0.397011  1 O  pz         
    13     -0.330002  1 O  dyy               15     -0.207350  1 O  dzz        
 
 Vector   12  Occ=0.000000D+00  E= 6.418539D-01  Symmetry=b1
              MO Center= -2.7D-16, -5.5D-22,  5.2D-02, r^2= 1.7D+00
   Bfn.  Coefficient  Atom+Function         Bfn.  Coefficient  Atom+Function  
  ----- ------------  ---------------      ----- ------------  ---------------
     7      1.707990  1 O  px                17      1.060481  2 H  s          
    19     -1.060481  3 H  s                  3     -0.934328  1 O  px         
    12      0.026561  1 O  dxz        
 
 Vector   13  Occ=0.000000D+00  E= 7.633247D-01  Symmetry=a1
              MO Center=  2.9D-17, -5.4D-17, -3.7D-01, r^2= 1.6D+00
   Bfn.  Coefficient  Atom+Function         Bfn.  Coefficient  Atom+Function  
  ----- ------------  ---------------      ----- ------------  ---------------
     6      3.673829  1 O  s                  2     -1.514168  1 O  s          
     9     -1.031121  1 O  pz                17     -0.877511  2 H  s          
    19     -0.877511  3 H  s                 10     -0.641630  1 O  dxx        
    15     -0.370967  1 O  dzz                5      0.353413  1 O  pz         
    16     -0.257187  2 H  s                 18     -0.257187  3 H  s          
 
 Vector   14  Occ=0.000000D+00  E= 1.215145D+00  Symmetry=a2
              MO Center=  5.1D-17, -1.9D-19,  1.2D-01, r^2= 6.1D-01
   Bfn.  Coefficient  Atom+Function         Bfn.  Coefficient  Atom+Function  
  ----- ------------  ---------------      ----- ------------  ---------------
    11      1.732051  1 O  dxy        
 
 Vector   15  Occ=0.000000D+00  E= 1.240019D+00  Symmetry=a1
              MO Center=  5.7D-18,  1.5D-16,  1.7D-01, r^2= 6.2D-01
   Bfn.  Coefficient  Atom+Function         Bfn.  Coefficient  Atom+Function  
  ----- ------------  ---------------      ----- ------------  ---------------
    15      0.999575  1 O  dzz               10     -0.560881  1 O  dxx        
    13     -0.418067  1 O  dyy                6     -0.155115  1 O  s          
     9      0.116749  1 O  pz                 2      0.072402  1 O  s          
    16      0.040863  2 H  s                 18      0.040863  3 H  s          
    17      0.037416  2 H  s                 19      0.037416  3 H  s          
 
 Vector   16  Occ=0.000000D+00  E= 1.253436D+00  Symmetry=b2
              MO Center= -2.7D-17, -2.0D-16,  1.5D-01, r^2= 6.1D-01
   Bfn.  Coefficient  Atom+Function         Bfn.  Coefficient  Atom+Function  
  ----- ------------  ---------------      ----- ------------  ---------------
    14      1.730042  1 O  dyz                8      0.046730  1 O  py         
 
 Vector   17  Occ=0.000000D+00  E= 1.794572D+00  Symmetry=a1
              MO Center=  1.3D-16,  9.3D-18, -1.9D-02, r^2= 8.7D-01
   Bfn.  Coefficient  Atom+Function         Bfn.  Coefficient  Atom+Function  
  ----- ------------  ---------------      ----- ------------  ---------------
     6      1.700476  1 O  s                 13     -1.117605  1 O  dyy        
    16     -0.873752  2 H  s                 18     -0.873752  3 H  s          
     9     -0.798272  1 O  pz                10      0.752024  1 O  dxx        
     2     -0.531452  1 O  s                 17     -0.165923  2 H  s          
    19     -0.165923  3 H  s                  1     -0.062734  1 O  s          
 
 Vector   18  Occ=0.000000D+00  E= 2.134557D+00  Symmetry=b1
              MO Center=  1.1D-17,  1.9D-19,  5.9D-02, r^2= 8.9D-01
   Bfn.  Coefficient  Atom+Function         Bfn.  Coefficient  Atom+Function  
  ----- ------------  ---------------      ----- ------------  ---------------
    12      2.217771  1 O  dxz               16     -0.968450  2 H  s          
    18      0.968450  3 H  s                  7     -0.895398  1 O  px         
    17      0.045409  2 H  s                 19     -0.045409  3 H  s          
     3      0.030663  1 O  px         
 
 Vector   19  Occ=0.000000D+00  E= 3.069708D+00  Symmetry=a1
              MO Center= -3.5D-18, -1.8D-18,  1.1D-01, r^2= 1.1D+00
   Bfn.  Coefficient  Atom+Function         Bfn.  Coefficient  Atom+Function  
  ----- ------------  ---------------      ----- ------------  ---------------
     6      3.830005  1 O  s                 13     -1.584191  1 O  dyy        
    15     -1.576684  1 O  dzz               10     -1.553917  1 O  dxx        
    17     -0.592475  2 H  s                 19     -0.592475  3 H  s          
     1     -0.470213  1 O  s                  9     -0.343350  1 O  pz         
     2      0.225703  1 O  s                 16      0.128712  2 H  s          
 
 
                     DFT Final Beta Molecular Orbital Analysis
                     -----------------------------------------
 
 Vector    1  Occ=1.000000D+00  E=-1.969370D+01  Symmetry=a1
              MO Center=  2.9D-19, -1.3D-21,  1.2D-01, r^2= 1.5D-02
   Bfn.  Coefficient  Atom+Function         Bfn.  Coefficient  Atom+Function  
  ----- ------------  ---------------      ----- ------------  ---------------
     1      0.993128  1 O  s                  2      0.025438  1 O  s          
 
 Vector    2  Occ=1.000000D+00  E=-1.473807D+00  Symmetry=a1
              MO Center=  4.9D-18, -8.6D-37, -9.0D-02, r^2= 4.7D-01
   Bfn.  Coefficient  Atom+Function         Bfn.  Coefficient  Atom+Function  
  ----- ------------  ---------------      ----- ------------  ---------------
     2      0.495851  1 O  s                  6      0.423840  1 O  s          
     1     -0.211004  1 O  s                  5     -0.143751  1 O  pz         
    16      0.138309  2 H  s                 18      0.138309  3 H  s          
     9     -0.068926  1 O  pz                10      0.028540  1 O  dxx        
    15      0.025481  1 O  dzz        
 
 Vector    3  Occ=1.000000D+00  E=-9.945095D-01  Symmetry=b1
              MO Center= -2.0D-16,  5.5D-20, -7.3D-02, r^2= 6.6D-01
   Bfn.  Coefficient  Atom+Function         Bfn.  Coefficient  Atom+Function  
  ----- ------------  ---------------      ----- ------------  ---------------
     3      0.576289  1 O  px                 7      0.283448  1 O  px         
    16     -0.232375  2 H  s                 18      0.232375  3 H  s          
    12     -0.083040  1 O  dxz               17     -0.052183  2 H  s          
    19      0.052183  3 H  s          
 
 Vector    4  Occ=1.000000D+00  E=-8.451450D-01  Symmetry=a1
              MO Center=  9.3D-17,  3.7D-17,  2.3D-01, r^2= 5.7D-01
   Bfn.  Coefficient  Atom+Function         Bfn.  Coefficient  Atom+Function  
  ----- ------------  ---------------      ----- ------------  ---------------
     5      0.615707  1 O  pz                 9      0.354649  1 O  pz         
     6      0.284479  1 O  s                  2      0.199976  1 O  s          
    16     -0.132495  2 H  s                 18     -0.132495  3 H  s          
     1     -0.082262  1 O  s                 17     -0.049150  2 H  s          
    19     -0.049150  3 H  s                 15     -0.044037  1 O  dzz        
 
 Vector    5  Occ=0.000000D+00  E=-6.175265D-01  Symmetry=b2
              MO Center=  1.8D-18, -2.1D-16,  9.5D-02, r^2= 5.8D-01
   Bfn.  Coefficient  Atom+Function         Bfn.  Coefficient  Atom+Function  
  ----- ------------  ---------------      ----- ------------  ---------------
     4      0.653741  1 O  py                 8      0.495974  1 O  py         
    14     -0.064976  1 O  dyz        
 
 Vector    6  Occ=0.000000D+00  E=-2.674232D-01  Symmetry=a1
              MO Center=  3.5D-17, -2.4D-17, -6.2D-01, r^2= 2.2D+00
   Bfn.  Coefficient  Atom+Function         Bfn.  Coefficient  Atom+Function  
  ----- ------------  ---------------      ----- ------------  ---------------
     6      1.084070  1 O  s                 17     -0.892057  2 H  s          
    19     -0.892057  3 H  s                  9     -0.377957  1 O  pz         
     5     -0.295517  1 O  pz                 2      0.210556  1 O  s          
    16     -0.161820  2 H  s                 18     -0.161820  3 H  s          
     1     -0.099338  1 O  s                 13     -0.030247  1 O  dyy        
 
 Vector    7  Occ=0.000000D+00  E=-1.913965D-01  Symmetry=b1
              MO Center=  1.1D-17,  1.9D-33, -5.4D-01, r^2= 2.3D+00
   Bfn.  Coefficient  Atom+Function         Bfn.  Coefficient  Atom+Function  
  ----- ------------  ---------------      ----- ------------  ---------------
    17      1.160916  2 H  s                 19     -1.160916  3 H  s          
     7      0.652828  1 O  px                 3      0.457244  1 O  px         
    16      0.207289  2 H  s                 18     -0.207289  3 H  s          
 
 Vector    8  Occ=0.000000D+00  E= 3.829138D-01  Symmetry=b1
              MO Center=  3.4D-14, -5.2D-17, -1.5D-01, r^2= 1.7D+00
   Bfn.  Coefficient  Atom+Function         Bfn.  Coefficient  Atom+Function  
  ----- ------------  ---------------      ----- ------------  ---------------
    16      0.805619  2 H  s                 18     -0.805619  3 H  s          
    17     -0.746362  2 H  s                 19      0.746362  3 H  s          
     7      0.382993  1 O  px                12      0.384853  1 O  dxz        
     3      0.136852  1 O  px         
 
 Vector    9  Occ=0.000000D+00  E= 4.450030D-01  Symmetry=a1
              MO Center= -3.6D-14,  1.7D-16,  7.4D-02, r^2= 1.4D+00
   Bfn.  Coefficient  Atom+Function         Bfn.  Coefficient  Atom+Function  
  ----- ------------  ---------------      ----- ------------  ---------------
     5      0.785623  1 O  pz                 9     -0.626211  1 O  pz         
    16      0.560706  2 H  s                 18      0.560706  3 H  s          
    17     -0.496884  2 H  s                 19     -0.496884  3 H  s          
    10      0.191935  1 O  dxx                6     -0.162350  1 O  s          
     2      0.086509  1 O  s                 15      0.076611  1 O  dzz        
 
 Vector   10  Occ=0.000000D+00  E= 4.968837D-01  Symmetry=b2
              MO Center= -8.1D-18, -7.4D-17,  1.1D-01, r^2= 1.1D+00
   Bfn.  Coefficient  Atom+Function         Bfn.  Coefficient  Atom+Function  
  ----- ------------  ---------------      ----- ------------  ---------------
     8     -1.043109  1 O  py                 4      0.953241  1 O  py         
    14      0.042904  1 O  dyz        
 
 Vector   11  Occ=0.000000D+00  E= 5.023223D-01  Symmetry=a1
              MO Center=  2.5D-15, -2.5D-17,  1.6D-02, r^2= 1.6D+00
   Bfn.  Coefficient  Atom+Function         Bfn.  Coefficient  Atom+Function  
  ----- ------------  ---------------      ----- ------------  ---------------
     6      1.075128  1 O  s                  9      0.797076  1 O  pz         
     2     -0.702604  1 O  s                 16      0.649537  2 H  s          
    18      0.649537  3 H  s                 17     -0.457833  2 H  s          
    19     -0.457833  3 H  s                  5     -0.383156  1 O  pz         
    13     -0.304491  1 O  dyy               15     -0.228961  1 O  dzz        
 
 Vector   12  Occ=0.000000D+00  E= 6.567438D-01  Symmetry=b1
              MO Center= -4.1D-16, -2.1D-17,  5.7D-02, r^2= 1.7D+00
   Bfn.  Coefficient  Atom+Function         Bfn.  Coefficient  Atom+Function  
  ----- ------------  ---------------      ----- ------------  ---------------
     7      1.698722  1 O  px                17      1.048163  2 H  s          
    19     -1.048163  3 H  s                  3     -0.943864  1 O  px         
    12      0.028877  1 O  dxz        
 
 Vector   13  Occ=0.000000D+00  E= 7.925976D-01  Symmetry=a1
              MO Center=  1.8D-16,  1.1D-16, -3.7D-01, r^2= 1.5D+00
   Bfn.  Coefficient  Atom+Function         Bfn.  Coefficient  Atom+Function  
  ----- ------------  ---------------      ----- ------------  ---------------
     6      3.707079  1 O  s                  2     -1.512501  1 O  s          
     9     -1.033175  1 O  pz                17     -0.867010  2 H  s          
    19     -0.867010  3 H  s                 10     -0.661521  1 O  dxx        
    15     -0.364632  1 O  dzz                5      0.350559  1 O  pz         
    16     -0.274527  2 H  s                 18     -0.274527  3 H  s          
 
 Vector   14  Occ=0.000000D+00  E= 1.264890D+00  Symmetry=a1
              MO Center=  3.2D-17,  5.6D-18,  1.8D-01, r^2= 6.2D-01
   Bfn.  Coefficient  Atom+Function         Bfn.  Coefficient  Atom+Function  
  ----- ------------  ---------------      ----- ------------  ---------------
    15      1.009174  1 O  dzz               10     -0.575468  1 O  dxx        
    13     -0.360595  1 O  dyy                6     -0.314382  1 O  s          
     9      0.180909  1 O  pz                 2      0.109031  1 O  s          
    16      0.102641  2 H  s                 18      0.102641  3 H  s          
    17      0.055357  2 H  s                 19      0.055357  3 H  s          
 
 Vector   15  Occ=0.000000D+00  E= 1.280640D+00  Symmetry=a2
              MO Center=  1.4D-16,  7.3D-17,  1.2D-01, r^2= 6.1D-01
   Bfn.  Coefficient  Atom+Function         Bfn.  Coefficient  Atom+Function  
  ----- ------------  ---------------      ----- ------------  ---------------
    11      1.732051  1 O  dxy        
 
 Vector   16  Occ=0.000000D+00  E= 1.317931D+00  Symmetry=b2
              MO Center= -1.3D-16,  7.7D-18,  1.5D-01, r^2= 6.1D-01
   Bfn.  Coefficient  Atom+Function         Bfn.  Coefficient  Atom+Function  
  ----- ------------  ---------------      ----- ------------  ---------------
    14      1.730300  1 O  dyz                8      0.044489  1 O  py         
 
 Vector   17  Occ=0.000000D+00  E= 1.853678D+00  Symmetry=a1
              MO Center= -6.0D-17,  2.2D-18, -8.0D-03, r^2= 8.5D-01
   Bfn.  Coefficient  Atom+Function         Bfn.  Coefficient  Atom+Function  
  ----- ------------  ---------------      ----- ------------  ---------------
     6      1.636829  1 O  s                 13     -1.133170  1 O  dyy        
    16     -0.845033  2 H  s                 18     -0.845033  3 H  s          
     9     -0.769152  1 O  pz                10      0.742524  1 O  dxx        
     2     -0.539310  1 O  s                 17     -0.161317  2 H  s          
    19     -0.161317  3 H  s                  5      0.058016  1 O  pz         
 
 Vector   18  Occ=0.000000D+00  E= 2.145126D+00  Symmetry=b1
              MO Center=  1.2D-16,  1.2D-19,  6.0D-02, r^2= 8.9D-01
   Bfn.  Coefficient  Atom+Function         Bfn.  Coefficient  Atom+Function  
  ----- ------------  ---------------      ----- ------------  ---------------
    12      2.219012  1 O  dxz               16     -0.965588  2 H  s          
    18      0.965588  3 H  s                  7     -0.895877  1 O  px         
    17      0.043550  2 H  s                 19     -0.043550  3 H  s          
     3      0.030192  1 O  px         
 
 Vector   19  Occ=0.000000D+00  E= 3.113797D+00  Symmetry=a1
              MO Center=  2.4D-17,  5.1D-19,  1.1D-01, r^2= 1.1D+00
   Bfn.  Coefficient  Atom+Function         Bfn.  Coefficient  Atom+Function  
  ----- ------------  ---------------      ----- ------------  ---------------
     6      3.805835  1 O  s                 13     -1.588866  1 O  dyy        
    15     -1.568974  1 O  dzz               10     -1.546054  1 O  dxx        
    17     -0.586882  2 H  s                 19     -0.586882  3 H  s          
     1     -0.469999  1 O  s                  9     -0.340763  1 O  pz         
     2      0.240350  1 O  s                 16      0.125628  2 H  s          
 

 Parallel integral file used       3 records with       0 large values


 Task  times  cpu:        0.1s     wall:        0.2s
 
 
                                NWChem Input Module
                                -------------------
 
 
 Summary of allocated global arrays
-----------------------------------
  No active global arrays



                         GA Statistics for process    0
                         ------------------------------

       create   destroy   get      put      acc     scatter   gather  read&inc
calls:  580      580     4715     1526     3440       28        0      328     
number of processes/call 1.05e+00 1.10e+00 1.04e+00 0.00e+00 0.00e+00
bytes total:             2.80e+06 1.16e+06 1.18e+06 0.00e+00 0.00e+00 2.62e+03
bytes remote:            1.83e+05 8.17e+04 1.06e+05 -4.80e+02 0.00e+00 0.00e+00
Max memory consumed for GA by this process: 181944 bytes
 
MA_summarize_allocated_blocks: starting scan ...
MA_summarize_allocated_blocks: scan completed: 0 heap blocks, 0 stack blocks
MA usage statistics:

	allocation statistics:
					      heap	     stack
					      ----	     -----
	current number of blocks	         0	         0
	maximum number of blocks	        22	        55
	current total bytes		         0	         0
	maximum total bytes		   1651560	  22511208
	maximum total K-bytes		      1652	     22512
	maximum total M-bytes		         2	        23
 
 
                                     CITATION
                                     --------
                Please cite the following reference when publishing
                           results obtained with NWChem:
 
                 M. Valiev, E.J. Bylaska, N. Govind, K. Kowalski,
              T.P. Straatsma, H.J.J. van Dam, D. Wang, J. Nieplocha,
                        E. Apra, T.L. Windus, W.A. de Jong
                 "NWChem: a comprehensive and scalable open-source
                  solution for large scale molecular simulations"
                      Comput. Phys. Commun. 181, 1477 (2010)
                           doi:10.1016/j.cpc.2010.04.018
 
                                      AUTHORS
                                      -------
          E. Apra, E. J. Bylaska, W. A. de Jong, N. Govind, K. Kowalski,
       T. P. Straatsma, M. Valiev, H. J. J. van Dam, D. Wang, T. L. Windus,
        J. Hammond, J. Autschbach, K. Bhaskaran-Nair, J. Brabec, K. Lopata,
       S. A. Fischer, S. Krishnamoorthy, W. Ma, M. Klemm, O. Villa, Y. Chen,
    V. Anisimov, F. Aquino, S. Hirata, M. T. Hackler, V. Konjkov, T. Risthaus,
       M. Malagoli, A. Marenich, A. Otero-de-la-Roza, J. Mullin, P. Nichols,
      R. Peverati, J. Pittner, Y. Zhao, P.-D. Fan, A. Fonari, M. Williamson,
      R. J. Harrison, J. R. Rehr, M. Dupuis, D. Silverstein, D. M. A. Smith,
            J. Nieplocha, V. Tipparaju, M. Krishnan, B. E. Van Kuiken,
        A. Vazquez-Mayagoitia, L. Jensen, M. Swart, Q. Wu, T. Van Voorhis,
     A. A. Auer, M. Nooijen, L. D. Crosby, E. Brown, G. Cisneros, G. I. Fann,
   H. Fruchtl, J. Garza, K. Hirao, R. A. Kendall, J. A. Nichols, K. Tsemekhman,
    K. Wolinski, J. Anchell, D. E. Bernholdt, P. Borowski, T. Clark, D. Clerc,
   H. Dachsel, M. J. O. Deegan, K. Dyall, D. Elwood, E. Glendening, M. Gutowski,
   A. C. Hess, J. Jaffe, B. G. Johnson, J. Ju, R. Kobayashi, R. Kutteh, Z. Lin,
   R. Littlefield, X. Long, B. Meng, T. Nakajima, S. Niu, L. Pollack, M. Rosing,
   K. Glaesemann, G. Sandrone, M. Stave, H. Taylor, G. Thomas, J. H. van Lenthe,
                               A. T. Wong, Z. Zhang.

 Total times  cpu:        0.3s     wall:        1.4s
