 argument  1 = dft_siosi3.nw



============================== echo of input deck ==============================
title siosi3

start siosi3_64
memory 140 mb
echo

geometry units au
O 0.000000 0.000000 0.000000
Si 3.014576 0.000000 0.000000
Si -2.508676 -1.669137 0.090355
O 3.981166 -1.323122 -2.508935
O 3.870273 2.910825 0.000000
O 4.041116 -1.465033 2.376888
O -2.655663 -3.328781 -2.400368
O -2.480544 -3.435889 2.483573
O -4.832471 0.280842 0.142363
Si 5.637169 -3.319181 -4.029830
Si 5.930953 4.953101 0.791790
Si 5.468246 -2.250324 4.885188
Si -7.654391 0.847590 1.014023
Si -3.158194 -4.857247 5.026302
Si -2.974151 -5.921535 -3.888964
H 5.270061 -6.079998 -2.949279
H 8.494671 -2.562004 -3.822741
H 4.688562 -3.250915 -6.887353
H 4.114112 -1.013523 7.254688
H 5.390639 -5.229699 5.239395
H 8.311107 -1.375146 4.719652
H 5.236878 7.507709 -0.616368
H 5.938739 5.355645 3.732678
H 8.621652 4.058320 -0.087848
H -1.107625 -8.007345 -2.844945
H -5.765149 -6.871347 -3.589463
H -2.308182 -5.365343 -6.772894
H -2.645080 -3.056162 7.365261
H -1.433339 -7.291917 5.351028
H -6.013502 -5.704069 4.953988
H -8.533456 3.346292 -0.391100
H -7.795607 1.205101 3.957357
H -9.424475 -1.395251 0.207369
end

dft
  noio
  convergence nolevelshifting nodamping
  print "dft timings"
  tolerances acccoul 10
end

basis "ao basis" cartesian print segment
H  library "DZVP2 (DFT Orbital)"
O  library "DZVP (DFT Orbital)"
Si library "DZVP (DFT Orbital)"
end

basis "cd basis" cartesian print segment
H  library "DGauss A2 DFT Coulomb Fitting"
O  library "DGauss A1 DFT Coulomb Fitting"
Si library "DGauss A1 DFT Coulomb Fitting"
end

task dft

================================================================================


                                         
                                         


              Northwest Computational Chemistry Package (NWChem) 6.0
              ------------------------------------------------------


                    Environmental Molecular Sciences Laboratory
                       Pacific Northwest National Laboratory
                                Richland, WA 99352

                              Copyright (c) 1994-2010
                       Pacific Northwest National Laboratory
                            Battelle Memorial Institute

             NWChem is an open-source computational chemistry package
                        distributed under the terms of the
                      Educational Community License (ECL) 2.0
             A copy of the license is included with this distribution
                              in the LICENSE.TXT file

                                  ACKNOWLEDGMENT
                                  --------------

            This software and its documentation were developed at the
            EMSL at Pacific Northwest National Laboratory, a multiprogram
            national laboratory, operated for the U.S. Department of Energy
            by Battelle under Contract Number DE-AC05-76RL01830. Support
            for this work was provided by the Department of Energy Office
            of Biological and Environmental Research, Office of Basic
            Energy Sciences, and the Office of Advanced Scientific Computing.


           Job information
           ---------------

    hostname      = arcen
    program       = /home/d3y133/nwchem-releases/nwchem-merge/nwchem-dev/QA/../bin/LINUX64/nwchem
    date          = Mon Oct 25 15:29:40 2010

    compiled      = Mon_Oct_25_14:31:37_2010
    source        = /home/d3y133/nwchem-releases/nwchem-merge/nwchem-dev
    nwchem branch = Development
    input         = dft_siosi3.nw
    prefix        = siosi3_64.
    data base     = /home/d3y133/nwchem-releases/nwchem-merge/nwchem-dev/QA/scratchdir/siosi3_64.db
    status        = startup
    nproc         =        4
    time left     =     -1s



           Memory information
           ------------------

    heap     =    4587521 doubles =     35.0 Mbytes
    stack    =    4587521 doubles =     35.0 Mbytes
    global   =    9175040 doubles =     70.0 Mbytes (distinct from heap & stack)
    total    =   18350082 doubles =    140.0 Mbytes
    verify   = yes
    hardfail = no 


           Directory information
           ---------------------

  0 permanent = /home/d3y133/nwchem-releases/nwchem-merge/nwchem-dev/QA/scratchdir
  0 scratch   = /home/d3y133/nwchem-releases/nwchem-merge/nwchem-dev/QA/scratchdir




                                NWChem Input Module
                                -------------------


                                      siosi3
                                      ------
 CS  symmetry detected

          ------
          auto-z
          ------


                             Geometry "geometry" -> ""
                             -------------------------

 Output coordinates in a.u. (scale by  1.000000000 to convert to a.u.)

  No.       Tag          Charge          X              Y              Z
 ---- ---------------- ---------- -------------- -------------- --------------
    1 O                    8.0000    -0.58768366    -1.37681278     0.00000000
    2 Si                  14.0000    -0.09040124    -0.65901094     2.88532905
    3 Si                  14.0000    -0.09040124    -0.65901094    -2.88532905
    4 O                    8.0000     2.83339551    -0.96350747     3.46705761
    5 O                    8.0000    -1.66283486    -2.65245282     4.54628505
    6 O                    8.0000    -0.93954127     2.14395728     3.40689390
    7 O                    8.0000     2.83339551    -0.96350747    -3.46705761
    8 O                    8.0000    -0.93954127     2.14395728    -3.40689390
    9 O                    8.0000    -1.66283486    -2.65245282    -4.54628505
   10 Si                  14.0000     5.48519233     0.00797098     4.49852536
   11 Si                  14.0000    -3.15176314    -3.21944682     7.09693912
   12 Si                  14.0000    -2.22675343     4.60953295     4.50642396
   13 Si                  14.0000    -3.15176314    -3.21944682    -7.09693912
   14 Si                  14.0000    -2.22675343     4.60953295    -4.50642396
   15 Si                  14.0000     5.48519233     0.00797098    -4.49852536
   16 H                    1.0000     6.19482498     2.66492089     3.33168241
   17 H                    1.0000     5.34693571     0.24339872     7.44928389
   18 H                    1.0000     7.54980555    -2.01586225     3.65507638
   19 H                    1.0000    -5.05332177     4.80169037     3.53097993
   20 H                    1.0000    -0.76591126     7.05647082     3.56482401
   21 H                    1.0000    -2.14201596     4.52466561     7.48312954
   22 H                    1.0000    -3.65580930    -6.17363924     7.19357761
   23 H                    1.0000    -5.71471166    -1.72405931     7.17477798
   24 H                    1.0000    -1.48506003    -2.44095670     9.42723832
   25 H                    1.0000     6.19482498     2.66492089    -3.33168241
   26 H                    1.0000     5.34693571     0.24339872    -7.44928389
   27 H                    1.0000     7.54980555    -2.01586225    -3.65507638
   28 H                    1.0000    -5.05332177     4.80169037    -3.53097993
   29 H                    1.0000    -0.76591126     7.05647082    -3.56482401
   30 H                    1.0000    -2.14201596     4.52466561    -7.48312954
   31 H                    1.0000    -3.65580930    -6.17363924    -7.19357761
   32 H                    1.0000    -5.71471166    -1.72405931    -7.17477798
   33 H                    1.0000    -1.48506003    -2.44095670    -9.42723832

      Atomic Mass 
      ----------- 

      O                 15.994910
      Si                27.976930
      H                  1.007825


 Effective nuclear repulsion energy (a.u.)    2313.2423767735

            Nuclear Dipole moment (a.u.) 
            ----------------------------
        X                 Y               Z
 ---------------- ---------------- ----------------
     0.0000000000     0.0000000000     0.0000000000

      Symmetry information
      --------------------

 Group name             Cs        
 Group number              2
 Group order               2
 No. of unique centers    17

      Symmetry unique atoms

     1    2    4    5    6   10   11   12   16   17   18   19   20   21   22
    23   24



                                Z-matrix (autoz)
                                -------- 

 Units are Angstrom for bonds and degrees for angles

      Type          Name      I     J     K     L     M      Value
      ----------- --------  ----- ----- ----- ----- ----- ----------
    1 Stretch                  1     2                       1.59524
    2 Stretch                  1     3                       1.59524
    3 Stretch                  2     4                       1.58574
    4 Stretch                  2     5                       1.60552
    5 Stretch                  2     6                       1.57422
    6 Stretch                  3     7                       1.58574
    7 Stretch                  3     8                       1.57422
    8 Stretch                  3     9                       1.60552
    9 Stretch                  4    10                       1.59103
   10 Stretch                  5    11                       1.59143
   11 Stretch                  6    12                       1.58267
   12 Stretch                  7    15                       1.59103
   13 Stretch                  8    14                       1.58267
   14 Stretch                  9    13                       1.59143
   15 Stretch                 10    16                       1.58086
   16 Stretch                 10    17                       1.56814
   17 Stretch                 10    18                       1.59369
   18 Stretch                 11    22                       1.58671
   19 Stretch                 11    23                       1.57077
   20 Stretch                 11    24                       1.57106
   21 Stretch                 12    19                       1.58558
   22 Stretch                 12    20                       1.58825
   23 Stretch                 12    21                       1.57648
   24 Stretch                 13    31                       1.58671
   25 Stretch                 13    32                       1.57077
   26 Stretch                 13    33                       1.57106
   27 Stretch                 14    28                       1.58558
   28 Stretch                 14    29                       1.58825
   29 Stretch                 14    30                       1.57648
   30 Stretch                 15    25                       1.58086
   31 Stretch                 15    26                       1.56814
   32 Stretch                 15    27                       1.59369
   33 Bend                     1     2     4               108.81788
   34 Bend                     1     2     5               106.38180
   35 Bend                     1     2     6               110.18641
   36 Bend                     1     3     7               108.81788
   37 Bend                     1     3     8               110.18641
   38 Bend                     1     3     9               106.38180
   39 Bend                     2     1     3               146.32369
   40 Bend                     2     4    10               153.42137
   41 Bend                     2     5    11               147.64823
   42 Bend                     2     6    12               164.59237
   43 Bend                     3     7    15               153.42137
   44 Bend                     3     8    14               164.59237
   45 Bend                     3     9    13               147.64823
   46 Bend                     4     2     5               109.42898
   47 Bend                     4     2     6               109.88971
   48 Bend                     4    10    16               111.27753
   49 Bend                     4    10    17               109.03392
   50 Bend                     4    10    18               106.94351
   51 Bend                     5     2     6               112.03401
   52 Bend                     5    11    22               107.23640
   53 Bend                     5    11    23               110.77757
   54 Bend                     5    11    24               109.77523
   55 Bend                     6    12    19               109.82768
   56 Bend                     6    12    20               110.32117
   57 Bend                     6    12    21               109.36663
   58 Bend                     7     3     8               109.88971
   59 Bend                     7     3     9               109.42898
   60 Bend                     7    15    25               111.27753
   61 Bend                     7    15    26               109.03392
   62 Bend                     7    15    27               106.94351
   63 Bend                     8     3     9               112.03401
   64 Bend                     8    14    28               109.82768
   65 Bend                     8    14    29               110.32117
   66 Bend                     8    14    30               109.36663
   67 Bend                     9    13    31               107.23640
   68 Bend                     9    13    32               110.77757
   69 Bend                     9    13    33               109.77523
   70 Bend                    16    10    17               109.22948
   71 Bend                    16    10    18               108.99209
   72 Bend                    17    10    18               111.36113
   73 Bend                    19    12    20               107.74225
   74 Bend                    19    12    21               110.72870
   75 Bend                    20    12    21               108.83541
   76 Bend                    22    11    23               110.50913
   77 Bend                    22    11    24               109.11234
   78 Bend                    23    11    24               109.39270
   79 Bend                    25    15    26               109.22948
   80 Bend                    25    15    27               108.99209
   81 Bend                    26    15    27               111.36113
   82 Bend                    28    14    29               107.74225
   83 Bend                    28    14    30               110.72870
   84 Bend                    29    14    30               108.83541
   85 Bend                    31    13    32               110.50913
   86 Bend                    31    13    33               109.11234
   87 Bend                    32    13    33               109.39270
   88 Torsion                  1     2     4    10         128.27092
   89 Torsion                  1     2     5    11        -150.52705
   90 Torsion                  1     2     6    12         125.41304
   91 Torsion                  1     3     7    15        -128.27092
   92 Torsion                  1     3     8    14        -125.41304
   93 Torsion                  1     3     9    13         150.52705
   94 Torsion                  2     1     3     7          65.29307
   95 Torsion                  2     1     3     8         -55.25321
   96 Torsion                  2     1     3     9        -176.90150
   97 Torsion                  2     4    10    16         -51.60144
   98 Torsion                  2     4    10    17          68.94508
   99 Torsion                  2     4    10    18        -170.53098
  100 Torsion                  2     5    11    22        -169.05377
  101 Torsion                  2     5    11    23          70.27837
  102 Torsion                  2     5    11    24         -50.63935
  103 Torsion                  2     6    12    19         -77.43248
  104 Torsion                  2     6    12    20         163.94943
  105 Torsion                  2     6    12    21          44.27314
  106 Torsion                  3     1     2     4         -65.29307
  107 Torsion                  3     1     2     5         176.90150
  108 Torsion                  3     1     2     6          55.25321
  109 Torsion                  3     7    15    25          51.60144
  110 Torsion                  3     7    15    26         -68.94508
  111 Torsion                  3     7    15    27         170.53098
  112 Torsion                  3     8    14    28          77.43248
  113 Torsion                  3     8    14    29        -163.94943
  114 Torsion                  3     8    14    30         -44.27314
  115 Torsion                  3     9    13    31         169.05377
  116 Torsion                  3     9    13    32         -70.27837
  117 Torsion                  3     9    13    33          50.63935
  118 Torsion                  4     2     5    11          92.07279
  119 Torsion                  4     2     6    12        -114.68695
  120 Torsion                  5     2     4    10        -115.87025
  121 Torsion                  5     2     6    12           7.18581
  122 Torsion                  6     2     4    10           7.54193
  123 Torsion                  6     2     5    11         -30.06334
  124 Torsion                  7     3     8    14         114.68695
  125 Torsion                  7     3     9    13         -92.07279
  126 Torsion                  8     3     7    15          -7.54193
  127 Torsion                  8     3     9    13          30.06334
  128 Torsion                  9     3     7    15         115.87025
  129 Torsion                  9     3     8    14          -7.18581


            XYZ format geometry
            -------------------
    33
 geometry
 O                    -0.31098882    -0.72857800     0.00000000
 Si                   -0.04783828    -0.34873360     1.52685049
 Si                   -0.04783828    -0.34873360    -1.52685049
 O                     1.49936844    -0.50986623     1.83468801
 O                    -0.87993438    -1.40361769     2.40579061
 O                    -0.49718386     1.13453342     1.80285074
 O                     1.49936844    -0.50986623    -1.83468801
 O                    -0.49718386     1.13453342    -1.80285074
 O                    -0.87993438    -1.40361769    -2.40579061
 Si                    2.90263899     0.00421806     2.38051728
 Si                   -1.66784135    -1.70365801     3.75553872
 Si                   -1.17834725     2.43925997     2.38469704
 Si                   -1.66784135    -1.70365801    -3.75553872
 Si                   -1.17834725     2.43925997    -2.38469704
 Si                    2.90263899     0.00421806    -2.38051728
 H                     3.27816044     1.41021551     1.76305053
 H                     2.82947673     0.12880106     3.94199156
 H                     3.99518533    -1.06674844     1.93418326
 H                    -2.67410291     2.54094530     1.86851424
 H                    -0.40530281     3.73412382     1.88642376
 H                    -1.13350611     2.39435010     3.95990190
 H                    -1.93457111    -3.26694943     3.80667761
 H                    -3.02409539    -0.91233296     3.79672927
 H                    -0.78585998    -1.29169875     4.98868004
 H                     3.27816044     1.41021551    -1.76305053
 H                     2.82947673     0.12880106    -3.94199156
 H                     3.99518533    -1.06674844    -1.93418326
 H                    -2.67410291     2.54094530    -1.86851424
 H                    -0.40530281     3.73412382    -1.88642376
 H                    -1.13350611     2.39435010    -3.95990190
 H                    -1.93457111    -3.26694943    -3.80667761
 H                    -3.02409539    -0.91233296    -3.79672927
 H                    -0.78585998    -1.29169875    -4.98868004

 ==============================================================================
                                internuclear distances
 ------------------------------------------------------------------------------
       center one      |      center two      | atomic units |       a.u.
 ------------------------------------------------------------------------------
    2 Si               |   1 O                |     3.01457  |     3.01457
    3 Si               |   1 O                |     3.01457  |     3.01457
    4 O                |   2 Si               |     2.99662  |     2.99662
    5 O                |   2 Si               |     3.03400  |     3.03400
    6 O                |   2 Si               |     2.97484  |     2.97484
    7 O                |   3 Si               |     2.99662  |     2.99662
    8 O                |   3 Si               |     2.97484  |     2.97484
    9 O                |   3 Si               |     3.03400  |     3.03400
   10 Si               |   4 O                |     3.00661  |     3.00661
   11 Si               |   5 O                |     3.00736  |     3.00736
   12 Si               |   6 O                |     2.99081  |     2.99081
   13 Si               |   9 O                |     3.00736  |     3.00736
   14 Si               |   8 O                |     2.99081  |     2.99081
   15 Si               |   7 O                |     3.00661  |     3.00661
 ------------------------------------------------------------------------------
                         number of included internuclear distances:         14
 ==============================================================================



 ==============================================================================
                                 internuclear angles
 ------------------------------------------------------------------------------
        center 1       |       center 2       |       center 3       |  degrees
 ------------------------------------------------------------------------------
    2 Si               |   1 O                |   3 Si               |   146.32
    1 O                |   2 Si               |   4 O                |   108.82
    1 O                |   2 Si               |   5 O                |   106.38
    1 O                |   2 Si               |   6 O                |   110.19
    4 O                |   2 Si               |   5 O                |   109.43
    4 O                |   2 Si               |   6 O                |   109.89
    5 O                |   2 Si               |   6 O                |   112.03
    1 O                |   3 Si               |   7 O                |   108.82
    1 O                |   3 Si               |   8 O                |   110.19
    1 O                |   3 Si               |   9 O                |   106.38
    7 O                |   3 Si               |   8 O                |   109.89
    7 O                |   3 Si               |   9 O                |   109.43
    8 O                |   3 Si               |   9 O                |   112.03
    2 Si               |   4 O                |  10 Si               |   153.42
    2 Si               |   5 O                |  11 Si               |   147.65
    2 Si               |   6 O                |  12 Si               |   164.59
    3 Si               |   7 O                |  15 Si               |   153.42
    3 Si               |   8 O                |  14 Si               |   164.59
    3 Si               |   9 O                |  13 Si               |   147.65
 ------------------------------------------------------------------------------
                            number of included internuclear angles:         19
 ==============================================================================



  library name resolved from: .nwchemrc
  library file name is: </home/d3y133/nwchem-releases/nwchem-merge/nwchem-dev/QA/../src/basis/libraries/>
  
                      Basis "ao basis" -> "" (cartesian)
                      -----
  H (Hydrogen)
  ------------
            Exponent  Coefficients 
       -------------- ---------------------------------------------------------
  1 S  5.09991780E+01  0.009661
  1 S  7.48321810E+00  0.073729
  1 S  1.77746760E+00  0.295858
  1 S  5.19329500E-01  0.715905

  2 S  1.54110000E-01  1.000000

  3 P  7.50000000E-01  1.000000

  O (Oxygen)
  ----------
            Exponent  Coefficients 
       -------------- ---------------------------------------------------------
  1 S  5.22290220E+03 -0.001936
  1 S  7.82539940E+02 -0.014851
  1 S  1.77267430E+02 -0.073319
  1 S  4.95166880E+01 -0.245116
  1 S  1.56664400E+01 -0.480285
  1 S  5.17935990E+00 -0.335943

  2 S  1.06014410E+01  0.078806
  2 S  9.42317000E-01 -0.567695

  3 S  2.77474600E-01  1.000000

  4 P  3.34241260E+01  0.017560
  4 P  7.62217140E+00  0.107630
  4 P  2.23820930E+00  0.323526
  4 P  6.86730000E-01  0.483223

  5 P  1.93813500E-01  1.000000

  6 D  8.00000000E-01  1.000000

  Si (Silicon)
  ------------
            Exponent  Coefficients 
       -------------- ---------------------------------------------------------
  1 S  1.72685770E+04 -0.001797
  1 S  2.58665090E+03 -0.013797
  1 S  5.85636410E+02 -0.068781
  1 S  1.63773640E+02 -0.235251
  1 S  5.22670280E+01 -0.476619
  1 S  1.75416810E+01 -0.350773

  2 S  3.51241390E+01  0.090214
  2 S  3.56542270E+00 -0.572255
  2 S  1.25914740E+00 -0.504554

  3 S  1.94701440E+00 -0.150835
  3 S  2.36757300E-01  0.674559

  4 S  8.58966000E-02  1.000000

  5 P  1.59681740E+02 -0.012393
  5 P  3.72581720E+01 -0.085080
  5 P  1.14382530E+01 -0.290551
  5 P  3.82783360E+00 -0.498559
  5 P  1.26790030E+00 -0.332562

  6 P  5.34409500E-01 -0.226437
  6 P  1.82903100E-01 -0.555304

  7 P  6.17873000E-02  1.000000

  8 D  4.50000000E-01  1.000000



 Summary of "ao basis" -> "" (cartesian)
 ------------------------------------------------------------------------------
       Tag                 Description            Shells   Functions and Types
 ---------------- ------------------------------  ------  ---------------------
 H                    DZVP2 (DFT Orbital)            3        5   2s1p
 O                     DZVP (DFT Orbital)            6       15   3s2p1d
 Si                    DZVP (DFT Orbital)            8       19   4s3p1d


  library name resolved from: .nwchemrc
  library file name is: </home/d3y133/nwchem-releases/nwchem-merge/nwchem-dev/QA/../src/basis/libraries/>
  
                      Basis "cd basis" -> "" (cartesian)
                      -----
  H (Hydrogen)
  ------------
            Exponent  Coefficients 
       -------------- ---------------------------------------------------------
  1 S  4.50000000E+01  1.000000

  2 S  7.50000000E+00  1.000000

  3 S  3.00000000E-01  1.000000

  4 S  1.50000000E+00  1.000000

  5 P  1.50000000E+00  1.000000

  6 D  1.50000000E+00  1.000000

  O (Oxygen)
  ----------
            Exponent  Coefficients 
       -------------- ---------------------------------------------------------
  1 S  2.00000000E+03  1.000000

  2 S  4.00000000E+02  1.000000

  3 S  1.00000000E+02  1.000000

  4 S  2.50000000E+01  1.000000

  5 S  7.80000000E+00  1.000000

  6 P  7.80000000E+00  1.000000

  7 S  1.56000000E+00  1.000000

  8 P  1.56000000E+00  1.000000

  9 S  3.90000000E-01  1.000000

 10 P  3.90000000E-01  1.000000

 11 D  7.80000000E+00  1.000000

 12 D  1.56000000E+00  1.000000

 13 D  3.90000000E-01  1.000000

  Si (Silicon)
  ------------
            Exponent  Coefficients 
       -------------- ---------------------------------------------------------
  1 S  9.83000000E+03  1.000000

  2 S  1.96600000E+03  1.000000

  3 S  4.92000000E+02  1.000000

  4 S  1.23000000E+02  1.000000

  5 S  3.07200000E+01  1.000000

  6 S  9.60000000E+00  1.000000

  7 P  9.60000000E+00  1.000000

  8 S  1.92000000E+00  1.000000

  9 P  1.92000000E+00  1.000000

 10 S  4.80000000E-01  1.000000

 11 P  4.80000000E-01  1.000000

 12 S  1.20000000E-01  1.000000

 13 P  1.20000000E-01  1.000000

 14 D  9.60000000E+00  1.000000

 15 D  1.92000000E+00  1.000000

 16 D  4.80000000E-01  1.000000

 17 D  1.20000000E-01  1.000000



 Summary of "cd basis" -> "" (cartesian)
 ------------------------------------------------------------------------------
       Tag                 Description            Shells   Functions and Types
 ---------------- ------------------------------  ------  ---------------------
 H                DGauss A2 DFT Coulomb Fitting      6       13   4s1p1d
 O                DGauss A1 DFT Coulomb Fitting     13       34   7s3p3d
 Si               DGauss A1 DFT Coulomb Fitting     17       45   9s4p4d



                                 NWChem DFT Module
                                 -----------------


                                      siosi3


  Caching 1-el integrals 

            General Information
            -------------------
          SCF calculation type: DFT
          Wavefunction type:  closed shell.
          No. of atoms     :    33
          No. of electrons :   186
           Alpha electrons :    93
            Beta electrons :    93
          Charge           :     0
          Spin multiplicity:     1
          Use of symmetry is: on ; symmetry adaption is: on 
          Maximum number of iterations:  30
          AO basis - number of functions:   347
                     number of shells:   160
          A Charge density fitting basis will be used.
          CD basis - number of functions:   832
                     number of shells:   335
          Convergence on energy requested: 1.00D-06
          Convergence on density requested: 1.00D-05
          Convergence on gradient requested: 5.00D-04

              XC Information
              --------------
                        Slater Exchange Functional  1.000 local    
                      VWN V Correlation Functional  1.000 local    

             Grid Information
             ----------------
          Grid used for XC integration:  medium    
          Radial quadrature: Mura-Knowles        
          Angular quadrature: Lebedev. 
          Tag              B.-S. Rad. Rad. Pts. Rad. Cut. Ang. Pts.
          ---              ---------- --------- --------- ---------
          O                   0.60       49          16.0       434
          Si                  1.10       88          19.0       590
          H                   0.35       45          20.0       434
          Grid pruning is: on 
          Number of quadrature shells:   953
          Spatial weights used:  Erf1

          Convergence Information
          -----------------------
          Convergence aids based upon iterative change in 
          total energy or number of iterations. 
          Levelshifting, if invoked, occurs when the 
          HOMO/LUMO gap drops below (HL_TOL): 1.00D-02
          DIIS, if invoked, will attempt to extrapolate 
          using up to (NFOCK): 10 stored Fock matrices.

                    Damping( 0%)  Levelshifting(0.0)       DIIS
                  --------------- ------------------- ---------------
          dE  on:     N/A              N/A                start   
          dE off:     N/A              N/A               30 iters 


      Screening Tolerance Information
      -------------------------------
          Density screening/tol_rho: 1.00D-10
          AO Gaussian exp screening on grid/accAOfunc:  14
          CD Gaussian exp screening on grid/accCDfunc:  20
          XC Gaussian exp screening on grid/accXCfunc:  20
          Schwarz screening/accCoul: 1.00D-10



     <<<<<<    Before call to DFT_SCF.    >>>>>>
     <<<<<< date:  Oct 25  time: 15:29:41 >>>>>>



     <<<<<<    Before 3c-2e initialize.   >>>>>>
     <<<<<< date:  Oct 25  time: 15:29:41 >>>>>>


      Superposition of Atomic Density Guess
      -------------------------------------

 Sum of atomic energies:       -2842.55896089

      Non-variational initial energy
      ------------------------------

 Total energy =   -2848.609786
 1-e energy   =   -8548.884472
 2-e energy   =    3387.032309
 HOMO         =      -0.373293
 LUMO         =      -0.026963


      Symmetry analysis of molecular orbitals - initial
      -------------------------------------------------

  Numbering of irreducible representations: 

     1 a'          2 a"      

  Orbital symmetries:

     1 a"          2 a'          3 a"          4 a'          5 a"      
     6 a'          7 a"          8 a'          9 a'         10 a"      
    11 a'         12 a"         13 a'         14 a"         15 a'      
    16 a"         17 a'         18 a"         19 a'         20 a'      
    21 a"         22 a'         23 a"         24 a'         25 a"      
    26 a"         27 a'         28 a'         29 a"         30 a"      
    31 a'         32 a"         33 a'         34 a'         35 a"      
    36 a"         37 a'         38 a"         39 a'         40 a'      
    41 a"         42 a'         43 a"         44 a'         45 a"      
    46 a'         47 a"         48 a'         49 a"         50 a'      
    51 a'         52 a"         53 a"         54 a'         55 a"      
    56 a'         57 a'         58 a"         59 a'         60 a"      
    61 a"         62 a'         63 a"         64 a'         65 a'      
    66 a"         67 a"         68 a'         69 a'         70 a'      
    71 a"         72 a"         73 a'         74 a'         75 a"      
    76 a"         77 a"         78 a'         79 a"         80 a'      
    81 a'         82 a'         83 a'         84 a"         85 a'      
    86 a"         87 a'         88 a"         89 a'         90 a"      
    91 a"         92 a'         93 a"         94 a'         95 a"      
    96 a'         97 a'         98 a"         99 a"        100 a'      
   101 a'        102 a"        103 a'      

   Time after variat. SCF:      5.4

      3 Center 2 Electron Integral Information
      ----------------------------------------
          Maximum number of 3-center 2e- integrals is:       100180288.
            This is reduced with Schwarz screening to:        34775936.
            Incore requires a per proc buffer size of:        11094240.
                  The minimum integral buffer size is:          599040
          Minimum dble words available (all nodes) is:         9146860
                   This is reduced (for later use) to:         8422762
                             Suggested buffer size is:         5000000

       Extra Local Memory (stack+heap) needed for incore:    21 Mbytes 

           5.000 MW buffer allocated for incore 3-center 
          2e- integral storage on stack. 
          The percent of 3c 2e- integrals held in-core is:  35.97

   Time prior to 1st pass:      6.4


     <<<<<<      Before SCF iter loop.    >>>>>>
     <<<<<< date:  Oct 25  time: 15:29:47 >>>>>>



     <<<<<<            calling 1-e int    >>>>>>
     <<<<<< date:  Oct 25  time: 15:29:47 >>>>>>

    Kinetic Matrix Time:          0.0s
    Potential Matrix Time:          0.0s


     <<<<<<    Before call to FITCD.      >>>>>>
     <<<<<< date:  Oct 25  time: 15:29:47 >>>>>>



     <<<<<<    Before call to GETVCOUL.   >>>>>>
     <<<<<< date:  Oct 25  time: 15:29:47 >>>>>>



     <<<<<<    Before call to GETVXC.     >>>>>>
     <<<<<< date:  Oct 25  time: 15:29:48 >>>>>>

    Fock_2e Build Time:          0.0s

 Grid_pts file          = /home/d3y133/nwchem-releases/nwchem-merge/nwchem-dev/QA/scratchdir/siosi3_64.gridpts.0
 Record size in doubles =  12289        No. of grid_pts per rec  =   3070
 Max. records in memory =     52        Max. recs in file   =    111204

    Fock_xc Build Time:          3.7s


     <<<<<<    End of parallel region.    >>>>>>
     <<<<<< date:  Oct 25  time: 15:29:52 >>>>>>

    Total Fock Matrix Build Time:          5.6s


     <<<<<<        calling diis driver    >>>>>>
     <<<<<< date:  Oct 25  time: 15:29:52 >>>>>>



     <<<<<<         called diis driver    >>>>>>
     <<<<<< date:  Oct 25  time: 15:29:52 >>>>>>



     <<<<<<               calling diag    >>>>>>
     <<<<<< date:  Oct 25  time: 15:29:52 >>>>>>



     <<<<<<                called diag    >>>>>>
     <<<<<< date:  Oct 25  time: 15:29:52 >>>>>>

    Diagonalization Time:          0.2s


     <<<<<<              calling densm    >>>>>>
     <<<<<< date:  Oct 25  time: 15:29:53 >>>>>>



     <<<<<<               called densm    >>>>>>
     <<<<<< date:  Oct 25  time: 15:29:53 >>>>>>


           Memory utilization after 1st SCF pass: 
           Heap Space remaining (MW):        3.92             3922254
          Stack Space remaining (MW):        0.00                   0

   convergence    iter        energy       DeltaE   RMS-Dens  Diis-err    time
 ---------------- ----- ----------------- --------- --------- ---------  ------
 d= 0,ls=0.0,diis     1  -2840.3307697689 -5.15D+03  9.83D-03  6.29D+00    12.4


     <<<<<<             calling scfcvg    >>>>>>
     <<<<<< date:  Oct 25  time: 15:29:53 >>>>>>



     <<<<<<              called scfcvg    >>>>>>
     <<<<<< date:  Oct 25  time: 15:29:53 >>>>>>



     <<<<<<            calling 1-e int    >>>>>>
     <<<<<< date:  Oct 25  time: 15:29:53 >>>>>>

    Kinetic Matrix Time:          0.0s
    Potential Matrix Time:          0.0s


     <<<<<<    Before call to FITCD.      >>>>>>
     <<<<<< date:  Oct 25  time: 15:29:53 >>>>>>



     <<<<<<    Before call to GETVCOUL.   >>>>>>
     <<<<<< date:  Oct 25  time: 15:29:53 >>>>>>



     <<<<<<    Before call to GETVXC.     >>>>>>
     <<<<<< date:  Oct 25  time: 15:29:56 >>>>>>

    Fock_2e Build Time:          0.0s
    Fock_xc Build Time:          2.9s


     <<<<<<    End of parallel region.    >>>>>>
     <<<<<< date:  Oct 25  time: 15:29:59 >>>>>>

    Total Fock Matrix Build Time:          5.9s


     <<<<<<        calling diis driver    >>>>>>
     <<<<<< date:  Oct 25  time: 15:29:59 >>>>>>



     <<<<<<         called diis driver    >>>>>>
     <<<<<< date:  Oct 25  time: 15:29:59 >>>>>>



     <<<<<<               calling diag    >>>>>>
     <<<<<< date:  Oct 25  time: 15:29:59 >>>>>>



     <<<<<<                called diag    >>>>>>
     <<<<<< date:  Oct 25  time: 15:29:59 >>>>>>

    Diagonalization Time:          0.2s


     <<<<<<              calling densm    >>>>>>
     <<<<<< date:  Oct 25  time: 15:29:59 >>>>>>



     <<<<<<               called densm    >>>>>>
     <<<<<< date:  Oct 25  time: 15:29:59 >>>>>>

 d= 0,ls=0.0,diis     2  -2839.6817955115  6.49D-01  6.68D-03  1.08D+01    18.7


     <<<<<<             calling scfcvg    >>>>>>
     <<<<<< date:  Oct 25  time: 15:29:59 >>>>>>



     <<<<<<              called scfcvg    >>>>>>
     <<<<<< date:  Oct 25  time: 15:29:59 >>>>>>



     <<<<<<            calling 1-e int    >>>>>>
     <<<<<< date:  Oct 25  time: 15:29:59 >>>>>>

    Kinetic Matrix Time:          0.0s
    Potential Matrix Time:          0.0s


     <<<<<<    Before call to FITCD.      >>>>>>
     <<<<<< date:  Oct 25  time: 15:29:59 >>>>>>



     <<<<<<    Before call to GETVCOUL.   >>>>>>
     <<<<<< date:  Oct 25  time: 15:30:00 >>>>>>



     <<<<<<    Before call to GETVXC.     >>>>>>
     <<<<<< date:  Oct 25  time: 15:30:02 >>>>>>

    Fock_2e Build Time:          0.0s
    Fock_xc Build Time:          2.9s


     <<<<<<    End of parallel region.    >>>>>>
     <<<<<< date:  Oct 25  time: 15:30:05 >>>>>>

    Total Fock Matrix Build Time:          5.8s


     <<<<<<        calling diis driver    >>>>>>
     <<<<<< date:  Oct 25  time: 15:30:05 >>>>>>



     <<<<<<         called diis driver    >>>>>>
     <<<<<< date:  Oct 25  time: 15:30:05 >>>>>>



     <<<<<<               calling diag    >>>>>>
     <<<<<< date:  Oct 25  time: 15:30:05 >>>>>>



     <<<<<<                called diag    >>>>>>
     <<<<<< date:  Oct 25  time: 15:30:05 >>>>>>

    Diagonalization Time:          0.2s


     <<<<<<              calling densm    >>>>>>
     <<<<<< date:  Oct 25  time: 15:30:05 >>>>>>



     <<<<<<               called densm    >>>>>>
     <<<<<< date:  Oct 25  time: 15:30:05 >>>>>>

 d= 0,ls=0.0,diis     3  -2840.6217101245 -9.40D-01  2.05D-03  9.96D-01    24.9


     <<<<<<             calling scfcvg    >>>>>>
     <<<<<< date:  Oct 25  time: 15:30:05 >>>>>>



     <<<<<<              called scfcvg    >>>>>>
     <<<<<< date:  Oct 25  time: 15:30:05 >>>>>>



     <<<<<<            calling 1-e int    >>>>>>
     <<<<<< date:  Oct 25  time: 15:30:05 >>>>>>

    Kinetic Matrix Time:          0.0s
    Potential Matrix Time:          0.0s


     <<<<<<    Before call to FITCD.      >>>>>>
     <<<<<< date:  Oct 25  time: 15:30:05 >>>>>>



     <<<<<<    Before call to GETVCOUL.   >>>>>>
     <<<<<< date:  Oct 25  time: 15:30:06 >>>>>>



     <<<<<<    Before call to GETVXC.     >>>>>>
     <<<<<< date:  Oct 25  time: 15:30:08 >>>>>>

    Fock_2e Build Time:          0.0s
    Fock_xc Build Time:          3.0s


     <<<<<<    End of parallel region.    >>>>>>
     <<<<<< date:  Oct 25  time: 15:30:11 >>>>>>

    Total Fock Matrix Build Time:          5.9s


     <<<<<<        calling diis driver    >>>>>>
     <<<<<< date:  Oct 25  time: 15:30:11 >>>>>>



     <<<<<<         called diis driver    >>>>>>
     <<<<<< date:  Oct 25  time: 15:30:11 >>>>>>



     <<<<<<               calling diag    >>>>>>
     <<<<<< date:  Oct 25  time: 15:30:11 >>>>>>



     <<<<<<                called diag    >>>>>>
     <<<<<< date:  Oct 25  time: 15:30:11 >>>>>>

    Diagonalization Time:          0.2s


     <<<<<<              calling densm    >>>>>>
     <<<<<< date:  Oct 25  time: 15:30:11 >>>>>>



     <<<<<<               called densm    >>>>>>
     <<<<<< date:  Oct 25  time: 15:30:11 >>>>>>

 d= 0,ls=0.0,diis     4  -2840.7153466613 -9.36D-02  6.66D-04  6.30D-02    31.2


     <<<<<<             calling scfcvg    >>>>>>
     <<<<<< date:  Oct 25  time: 15:30:11 >>>>>>



     <<<<<<              called scfcvg    >>>>>>
     <<<<<< date:  Oct 25  time: 15:30:11 >>>>>>



     <<<<<<            calling 1-e int    >>>>>>
     <<<<<< date:  Oct 25  time: 15:30:11 >>>>>>

    Kinetic Matrix Time:          0.0s
    Potential Matrix Time:          0.0s


     <<<<<<    Before call to FITCD.      >>>>>>
     <<<<<< date:  Oct 25  time: 15:30:11 >>>>>>



     <<<<<<    Before call to GETVCOUL.   >>>>>>
     <<<<<< date:  Oct 25  time: 15:30:12 >>>>>>



     <<<<<<    Before call to GETVXC.     >>>>>>
     <<<<<< date:  Oct 25  time: 15:30:14 >>>>>>

    Fock_2e Build Time:          0.0s
    Fock_xc Build Time:          3.0s


     <<<<<<    End of parallel region.    >>>>>>
     <<<<<< date:  Oct 25  time: 15:30:17 >>>>>>

    Total Fock Matrix Build Time:          5.9s


     <<<<<<        calling diis driver    >>>>>>
     <<<<<< date:  Oct 25  time: 15:30:17 >>>>>>



     <<<<<<         called diis driver    >>>>>>
     <<<<<< date:  Oct 25  time: 15:30:18 >>>>>>



     <<<<<<               calling diag    >>>>>>
     <<<<<< date:  Oct 25  time: 15:30:18 >>>>>>



     <<<<<<                called diag    >>>>>>
     <<<<<< date:  Oct 25  time: 15:30:18 >>>>>>

    Diagonalization Time:          0.2s


     <<<<<<              calling densm    >>>>>>
     <<<<<< date:  Oct 25  time: 15:30:18 >>>>>>



     <<<<<<               called densm    >>>>>>
     <<<<<< date:  Oct 25  time: 15:30:18 >>>>>>

 d= 0,ls=0.0,diis     5  -2840.7228051396 -7.46D-03  2.05D-04  9.83D-03    37.5


     <<<<<<             calling scfcvg    >>>>>>
     <<<<<< date:  Oct 25  time: 15:30:18 >>>>>>



     <<<<<<              called scfcvg    >>>>>>
     <<<<<< date:  Oct 25  time: 15:30:18 >>>>>>



     <<<<<<            calling 1-e int    >>>>>>
     <<<<<< date:  Oct 25  time: 15:30:18 >>>>>>

    Kinetic Matrix Time:          0.0s
    Potential Matrix Time:          0.0s


     <<<<<<    Before call to FITCD.      >>>>>>
     <<<<<< date:  Oct 25  time: 15:30:18 >>>>>>



     <<<<<<    Before call to GETVCOUL.   >>>>>>
     <<<<<< date:  Oct 25  time: 15:30:19 >>>>>>



     <<<<<<    Before call to GETVXC.     >>>>>>
     <<<<<< date:  Oct 25  time: 15:30:21 >>>>>>

    Fock_2e Build Time:          0.0s
    Fock_xc Build Time:          3.0s


     <<<<<<    End of parallel region.    >>>>>>
     <<<<<< date:  Oct 25  time: 15:30:24 >>>>>>

    Total Fock Matrix Build Time:          6.0s


     <<<<<<        calling diis driver    >>>>>>
     <<<<<< date:  Oct 25  time: 15:30:24 >>>>>>



     <<<<<<         called diis driver    >>>>>>
     <<<<<< date:  Oct 25  time: 15:30:24 >>>>>>



     <<<<<<               calling diag    >>>>>>
     <<<<<< date:  Oct 25  time: 15:30:24 >>>>>>



     <<<<<<                called diag    >>>>>>
     <<<<<< date:  Oct 25  time: 15:30:24 >>>>>>

    Diagonalization Time:          0.2s


     <<<<<<              calling densm    >>>>>>
     <<<<<< date:  Oct 25  time: 15:30:24 >>>>>>



     <<<<<<               called densm    >>>>>>
     <<<<<< date:  Oct 25  time: 15:30:24 >>>>>>

 d= 0,ls=0.0,diis     6  -2840.7236417565 -8.37D-04  7.43D-05  7.84D-04    43.9


     <<<<<<             calling scfcvg    >>>>>>
     <<<<<< date:  Oct 25  time: 15:30:24 >>>>>>



     <<<<<<              called scfcvg    >>>>>>
     <<<<<< date:  Oct 25  time: 15:30:24 >>>>>>



     <<<<<<            calling 1-e int    >>>>>>
     <<<<<< date:  Oct 25  time: 15:30:24 >>>>>>

    Kinetic Matrix Time:          0.0s
    Potential Matrix Time:          0.0s


     <<<<<<    Before call to FITCD.      >>>>>>
     <<<<<< date:  Oct 25  time: 15:30:24 >>>>>>



     <<<<<<    Before call to GETVCOUL.   >>>>>>
     <<<<<< date:  Oct 25  time: 15:30:25 >>>>>>



     <<<<<<    Before call to GETVXC.     >>>>>>
     <<<<<< date:  Oct 25  time: 15:30:27 >>>>>>

    Fock_2e Build Time:          0.0s
    Fock_xc Build Time:          3.0s


     <<<<<<    End of parallel region.    >>>>>>
     <<<<<< date:  Oct 25  time: 15:30:30 >>>>>>

    Total Fock Matrix Build Time:          5.8s


     <<<<<<        calling diis driver    >>>>>>
     <<<<<< date:  Oct 25  time: 15:30:30 >>>>>>



     <<<<<<         called diis driver    >>>>>>
     <<<<<< date:  Oct 25  time: 15:30:30 >>>>>>



     <<<<<<               calling diag    >>>>>>
     <<<<<< date:  Oct 25  time: 15:30:30 >>>>>>



     <<<<<<                called diag    >>>>>>
     <<<<<< date:  Oct 25  time: 15:30:31 >>>>>>

    Diagonalization Time:          0.2s


     <<<<<<              calling densm    >>>>>>
     <<<<<< date:  Oct 25  time: 15:30:31 >>>>>>



     <<<<<<               called densm    >>>>>>
     <<<<<< date:  Oct 25  time: 15:30:31 >>>>>>

 d= 0,ls=0.0,diis     7  -2840.7237417715 -1.00D-04  1.03D-05  1.24D-05    50.1


     <<<<<<             calling scfcvg    >>>>>>
     <<<<<< date:  Oct 25  time: 15:30:31 >>>>>>



     <<<<<<              called scfcvg    >>>>>>
     <<<<<< date:  Oct 25  time: 15:30:31 >>>>>>



     <<<<<<            calling 1-e int    >>>>>>
     <<<<<< date:  Oct 25  time: 15:30:31 >>>>>>

    Kinetic Matrix Time:          0.0s
    Potential Matrix Time:          0.0s


     <<<<<<    Before call to FITCD.      >>>>>>
     <<<<<< date:  Oct 25  time: 15:30:31 >>>>>>



     <<<<<<    Before call to GETVCOUL.   >>>>>>
     <<<<<< date:  Oct 25  time: 15:30:32 >>>>>>



     <<<<<<    Before call to GETVXC.     >>>>>>
     <<<<<< date:  Oct 25  time: 15:30:34 >>>>>>

    Fock_2e Build Time:          0.0s
    Fock_xc Build Time:          3.0s


     <<<<<<    End of parallel region.    >>>>>>
     <<<<<< date:  Oct 25  time: 15:30:37 >>>>>>

    Total Fock Matrix Build Time:          5.9s


     <<<<<<        calling diis driver    >>>>>>
     <<<<<< date:  Oct 25  time: 15:30:37 >>>>>>



     <<<<<<         called diis driver    >>>>>>
     <<<<<< date:  Oct 25  time: 15:30:37 >>>>>>



     <<<<<<               calling diag    >>>>>>
     <<<<<< date:  Oct 25  time: 15:30:37 >>>>>>



     <<<<<<                called diag    >>>>>>
     <<<<<< date:  Oct 25  time: 15:30:37 >>>>>>

    Diagonalization Time:          0.2s


     <<<<<<              calling densm    >>>>>>
     <<<<<< date:  Oct 25  time: 15:30:37 >>>>>>



     <<<<<<               called densm    >>>>>>
     <<<<<< date:  Oct 25  time: 15:30:37 >>>>>>

 d= 0,ls=0.0,diis     8  -2840.7237428184 -1.05D-06  3.98D-06  5.63D-06    56.4


     <<<<<<             calling scfcvg    >>>>>>
     <<<<<< date:  Oct 25  time: 15:30:37 >>>>>>



     <<<<<<              called scfcvg    >>>>>>
     <<<<<< date:  Oct 25  time: 15:30:37 >>>>>>



     <<<<<<            calling 1-e int    >>>>>>
     <<<<<< date:  Oct 25  time: 15:30:37 >>>>>>

    Kinetic Matrix Time:          0.0s
    Potential Matrix Time:          0.0s


     <<<<<<    Before call to FITCD.      >>>>>>
     <<<<<< date:  Oct 25  time: 15:30:37 >>>>>>



     <<<<<<    Before call to GETVCOUL.   >>>>>>
     <<<<<< date:  Oct 25  time: 15:30:38 >>>>>>



     <<<<<<    Before call to GETVXC.     >>>>>>
     <<<<<< date:  Oct 25  time: 15:30:40 >>>>>>

    Fock_2e Build Time:          0.0s
    Fock_xc Build Time:          3.0s


     <<<<<<    End of parallel region.    >>>>>>
     <<<<<< date:  Oct 25  time: 15:30:43 >>>>>>

    Total Fock Matrix Build Time:          5.9s


     <<<<<<        calling diis driver    >>>>>>
     <<<<<< date:  Oct 25  time: 15:30:43 >>>>>>



     <<<<<<         called diis driver    >>>>>>
     <<<<<< date:  Oct 25  time: 15:30:43 >>>>>>



     <<<<<<               calling diag    >>>>>>
     <<<<<< date:  Oct 25  time: 15:30:43 >>>>>>



     <<<<<<                called diag    >>>>>>
     <<<<<< date:  Oct 25  time: 15:30:43 >>>>>>

    Diagonalization Time:          0.2s


     <<<<<<              calling densm    >>>>>>
     <<<<<< date:  Oct 25  time: 15:30:43 >>>>>>



     <<<<<<               called densm    >>>>>>
     <<<<<< date:  Oct 25  time: 15:30:43 >>>>>>

 d= 0,ls=0.0,diis     9  -2840.7237433456 -5.27D-07  1.26D-06  2.17D-07    62.7


     <<<<<<             calling scfcvg    >>>>>>
     <<<<<< date:  Oct 25  time: 15:30:43 >>>>>>



     <<<<<<              called scfcvg    >>>>>>
     <<<<<< date:  Oct 25  time: 15:30:43 >>>>>>



         Total DFT energy =    -2840.723743345628
      One electron energy =    -8561.195102534455
           Coulomb energy =     3628.155319471504
    Exchange-Corr. energy =     -220.926337056181
 Nuclear repulsion energy =     2313.242376773504

 Numeric. integr. density =      186.000130495949

     Total iterative time =     56.3s



                       DFT Final Molecular Orbital Analysis
                       ------------------------------------

 Vector   47  Occ=2.000000D+00  E=-3.498702D+00  Symmetry=a'
              MO Center= -1.7D+00, -1.7D+00,  6.9D-09, r^2= 1.4D+01
   Bfn.  Coefficient  Atom+Function         Bfn.  Coefficient  Atom+Function  
  ----- ------------  ---------------      ----- ------------  ---------------
   168      0.652404  11 Si py              206      0.652404  13 Si py        
   167     -0.263309  11 Si px              205     -0.263309  13 Si px        

 Vector   48  Occ=2.000000D+00  E=-9.739505D-01  Symmetry=a'
              MO Center= -6.9D-02, -1.3D-01,  1.4D-14, r^2= 4.8D+00
   Bfn.  Coefficient  Atom+Function         Bfn.  Coefficient  Atom+Function  
  ----- ------------  ---------------      ----- ------------  ---------------
     2      0.234918   1 O  s                85      0.192934   6 O  s         
   115      0.192934   8 O  s                 3     -0.183571   1 O  s         
    37     -0.182487   3 Si s                18     -0.182487   2 Si s         
   116     -0.157399   8 O  s                86     -0.157399   6 O  s         
   100      0.152308   7 O  s                55      0.152308   4 O  s         

 Vector   49  Occ=2.000000D+00  E=-9.598120D-01  Symmetry=a"
              MO Center= -5.1D-02,  1.4D-01, -1.8D-14, r^2= 6.2D+00
   Bfn.  Coefficient  Atom+Function         Bfn.  Coefficient  Atom+Function  
  ----- ------------  ---------------      ----- ------------  ---------------
   115     -0.239791   8 O  s                85      0.239791   6 O  s         
   116      0.197938   8 O  s                86     -0.197938   6 O  s         
   100     -0.172614   7 O  s                55      0.172614   4 O  s         
   130     -0.153207   9 O  s                70      0.153207   5 O  s         
    37      0.151881   3 Si s                18     -0.151881   2 Si s         

 Vector   50  Occ=2.000000D+00  E=-9.282904D-01  Symmetry=a'
              MO Center= -5.6D-02,  4.7D-01,  2.6D-13, r^2= 5.7D+00
   Bfn.  Coefficient  Atom+Function         Bfn.  Coefficient  Atom+Function  
  ----- ------------  ---------------      ----- ------------  ---------------
    85     -0.287054   6 O  s               115     -0.287054   8 O  s         
    86      0.199689   6 O  s               116      0.199689   8 O  s         
    55      0.174699   4 O  s               100      0.174699   7 O  s         

 Vector   51  Occ=2.000000D+00  E=-9.264356D-01  Symmetry=a"
              MO Center=  1.9D-01,  2.1D-01, -2.5D-13, r^2= 6.4D+00
   Bfn.  Coefficient  Atom+Function         Bfn.  Coefficient  Atom+Function  
  ----- ------------  ---------------      ----- ------------  ---------------
   115     -0.252548   8 O  s                85      0.252548   6 O  s         
   100      0.217759   7 O  s                55     -0.217759   4 O  s         
   116      0.180707   8 O  s                86     -0.180707   6 O  s         
   101     -0.164220   7 O  s                56      0.164220   4 O  s         

 Vector   52  Occ=2.000000D+00  E=-9.205023D-01  Symmetry=a'
              MO Center=  1.6D-01, -9.1D-01,  2.7D-12, r^2= 7.1D+00
   Bfn.  Coefficient  Atom+Function         Bfn.  Coefficient  Atom+Function  
  ----- ------------  ---------------      ----- ------------  ---------------
    70     -0.262279   5 O  s               130     -0.262279   9 O  s         
    55      0.237153   4 O  s               100      0.237153   7 O  s         
    71      0.185028   5 O  s               131      0.185028   9 O  s         
    56     -0.161654   4 O  s               101     -0.161654   7 O  s         

 Vector   53  Occ=2.000000D+00  E=-9.199149D-01  Symmetry=a"
              MO Center= -5.2D-02, -1.0D+00, -2.7D-12, r^2= 7.3D+00
   Bfn.  Coefficient  Atom+Function         Bfn.  Coefficient  Atom+Function  
  ----- ------------  ---------------      ----- ------------  ---------------
   130     -0.286694   9 O  s                70      0.286694   5 O  s         
   100      0.211799   7 O  s                55     -0.211799   4 O  s         
   131      0.203142   9 O  s                71     -0.203142   5 O  s         
   101     -0.152312   7 O  s                56      0.152312   4 O  s         

 Vector   54  Occ=2.000000D+00  E=-9.117166D-01  Symmetry=a'
              MO Center= -2.1D-01, -7.4D-01, -4.1D-15, r^2= 3.0D+00
   Bfn.  Coefficient  Atom+Function         Bfn.  Coefficient  Atom+Function  
  ----- ------------  ---------------      ----- ------------  ---------------
     2      0.420854   1 O  s                 3     -0.278604   1 O  s         
     1     -0.191941   1 O  s               130     -0.165113   9 O  s         
    70     -0.165113   5 O  s         

 Vector   55  Occ=2.000000D+00  E=-6.103177D-01  Symmetry=a"
              MO Center= -6.3D-02, -1.8D-01,  7.2D-16, r^2= 6.6D+00
   Bfn.  Coefficient  Atom+Function         Bfn.  Coefficient  Atom+Function  
  ----- ------------  ---------------      ----- ------------  ---------------
    37     -0.328809   3 Si s                18      0.328809   2 Si s         
     6      0.249223   1 O  pz              118      0.183323   8 O  py        
    88     -0.183323   6 O  py              102      0.169660   7 O  px        
    57     -0.169660   4 O  px               36     -0.153923   3 Si s         
    17      0.153923   2 Si s         

 Vector   56  Occ=2.000000D+00  E=-5.832331D-01  Symmetry=a'
              MO Center=  1.5D-02,  2.7D-01,  3.7D-15, r^2= 7.9D+00
   Bfn.  Coefficient  Atom+Function         Bfn.  Coefficient  Atom+Function  
  ----- ------------  ---------------      ----- ------------  ---------------
    18     -0.258557   2 Si s                37     -0.258557   3 Si s         
   118      0.239251   8 O  py               88      0.239251   6 O  py        
    57      0.196904   4 O  px              102      0.196904   7 O  px        
   222      0.190018  14 Si s               184      0.190018  12 Si s         

 Vector   57  Occ=2.000000D+00  E=-5.434831D-01  Symmetry=a'
              MO Center=  6.9D-02,  2.7D-01,  1.1D-16, r^2= 8.9D+00
   Bfn.  Coefficient  Atom+Function         Bfn.  Coefficient  Atom+Function  
  ----- ------------  ---------------      ----- ------------  ---------------
    24      0.237503   2 Si py               43      0.237503   3 Si py        
   118      0.226883   8 O  py               88      0.226883   6 O  py        
   222      0.213252  14 Si s               184      0.213252  12 Si s         
    57     -0.196140   4 O  px              102     -0.196140   7 O  px        
   241     -0.171689  15 Si s               146     -0.171689  10 Si s         

 Vector   58  Occ=2.000000D+00  E=-5.416090D-01  Symmetry=a"
              MO Center= -3.9D-01,  6.3D-01, -1.7D-15, r^2= 8.2D+00
   Bfn.  Coefficient  Atom+Function         Bfn.  Coefficient  Atom+Function  
  ----- ------------  ---------------      ----- ------------  ---------------
    88     -0.272667   6 O  py              118      0.272667   8 O  py        
    24     -0.264360   2 Si py               43      0.264360   3 Si py        
   222      0.256403  14 Si s               184     -0.256403  12 Si s         

 Vector   59  Occ=2.000000D+00  E=-5.284201D-01  Symmetry=a'
              MO Center=  7.1D-03, -1.0D+00,  4.7D-15, r^2= 1.0D+01
   Bfn.  Coefficient  Atom+Function         Bfn.  Coefficient  Atom+Function  
  ----- ------------  ---------------      ----- ------------  ---------------
   165      0.240070  11 Si s               203      0.240070  13 Si s         
    74      0.218314   5 O  pz              134     -0.218314   9 O  pz        
    42     -0.209464   3 Si px               23     -0.209464   2 Si px        
   102     -0.203201   7 O  px               57     -0.203201   4 O  px        
   241     -0.186655  15 Si s               146     -0.186655  10 Si s         

 Vector   60  Occ=2.000000D+00  E=-5.266269D-01  Symmetry=a"
              MO Center=  7.1D-01, -7.5D-01, -4.5D-15, r^2= 9.6D+00
   Bfn.  Coefficient  Atom+Function         Bfn.  Coefficient  Atom+Function  
  ----- ------------  ---------------      ----- ------------  ---------------
   102     -0.269511   7 O  px               57      0.269511   4 O  px        
   241     -0.242827  15 Si s               146      0.242827  10 Si s         
    42     -0.230388   3 Si px               23      0.230388   2 Si px        
   165     -0.188462  11 Si s               203      0.188462  13 Si s         
    74     -0.178523   5 O  pz              134     -0.178523   9 O  pz        

 Vector   61  Occ=2.000000D+00  E=-4.883136D-01  Symmetry=a"
              MO Center= -4.5D-01, -7.6D-01, -4.3D-15, r^2= 5.7D+00
   Bfn.  Coefficient  Atom+Function         Bfn.  Coefficient  Atom+Function  
  ----- ------------  ---------------      ----- ------------  ---------------
     6      0.497356   1 O  pz               44      0.322437   3 Si pz        
    25      0.322437   2 Si pz              165      0.175809  11 Si s         
   203     -0.175809  13 Si s         

 Vector   62  Occ=2.000000D+00  E=-4.286552D-01  Symmetry=a'
              MO Center= -6.2D-01,  8.2D-01,  7.6D-14, r^2= 1.6D+01
   Bfn.  Coefficient  Atom+Function         Bfn.  Coefficient  Atom+Function  
  ----- ------------  ---------------      ----- ------------  ---------------
   184      0.170992  12 Si s               222      0.170992  14 Si s         

 Vector   63  Occ=2.000000D+00  E=-4.267919D-01  Symmetry=a"
              MO Center= -4.5D-01,  7.2D-01, -8.1D-14, r^2= 1.5D+01
   Bfn.  Coefficient  Atom+Function         Bfn.  Coefficient  Atom+Function  
  ----- ------------  ---------------      ----- ------------  ---------------
   222     -0.157396  14 Si s               184      0.157396  12 Si s         

 Vector   64  Occ=2.000000D+00  E=-4.203815D-01  Symmetry=a'
              MO Center=  8.0D-01, -9.0D-02, -5.4D-15, r^2= 1.3D+01
   Bfn.  Coefficient  Atom+Function         Bfn.  Coefficient  Atom+Function  
  ----- ------------  ---------------      ----- ------------  ---------------
    23      0.160578   2 Si px               42      0.160578   3 Si px        
     4     -0.154130   1 O  px        

 Vector   65  Occ=2.000000D+00  E=-4.166935D-01  Symmetry=a'
              MO Center= -2.1D-01,  7.2D-01,  8.7D-15, r^2= 1.5D+01
   Bfn.  Coefficient  Atom+Function         Bfn.  Coefficient  Atom+Function  
  ----- ------------  ---------------      ----- ------------  ---------------
     5      0.160168   1 O  py        

 Vector   66  Occ=2.000000D+00  E=-4.135914D-01  Symmetry=a"
              MO Center=  1.1D+00,  1.2D-03, -7.4D-15, r^2= 1.3D+01
   Bfn.  Coefficient  Atom+Function         Bfn.  Coefficient  Atom+Function  
  ----- ------------  ---------------      ----- ------------  ---------------
    57      0.177054   4 O  px              102     -0.177054   7 O  px        
    23      0.173599   2 Si px               42     -0.173599   3 Si px        
   241      0.150370  15 Si s               146     -0.150370  10 Si s         

 Vector   67  Occ=2.000000D+00  E=-4.105324D-01  Symmetry=a"
              MO Center= -7.4D-01,  5.7D-01,  3.7D-15, r^2= 1.7D+01
   Bfn.  Coefficient  Atom+Function         Bfn.  Coefficient  Atom+Function  
  ----- ------------  ---------------      ----- ------------  ---------------
    43     -0.164991   3 Si py               24      0.164991   2 Si py        
   190      0.152807  12 Si py              228     -0.152807  14 Si py        

 Vector   68  Occ=2.000000D+00  E=-3.952067D-01  Symmetry=a'
              MO Center= -1.2D-01,  2.3D-01, -4.3D-15, r^2= 9.9D+00
   Bfn.  Coefficient  Atom+Function         Bfn.  Coefficient  Atom+Function  
  ----- ------------  ---------------      ----- ------------  ---------------
    89      0.264972   6 O  pz              119     -0.264972   8 O  pz        
     3      0.154548   1 O  s                59      0.153240   4 O  pz        
   104     -0.153240   7 O  pz        

 Vector   69  Occ=2.000000D+00  E=-3.842067D-01  Symmetry=a'
              MO Center= -1.4D-02,  9.6D-02,  2.0D-14, r^2= 9.8D+00
   Bfn.  Coefficient  Atom+Function         Bfn.  Coefficient  Atom+Function  
  ----- ------------  ---------------      ----- ------------  ---------------
   117     -0.202416   8 O  px               87     -0.202416   6 O  px        
    59     -0.187053   4 O  pz              104      0.187053   7 O  pz        
    89      0.157656   6 O  pz              119     -0.157656   8 O  pz        

 Vector   70  Occ=2.000000D+00  E=-3.808872D-01  Symmetry=a"
              MO Center=  2.0D-01,  2.4D-01, -1.2D-14, r^2= 1.1D+01
   Bfn.  Coefficient  Atom+Function         Bfn.  Coefficient  Atom+Function  
  ----- ------------  ---------------      ----- ------------  ---------------
   117     -0.279260   8 O  px               87      0.279260   6 O  px        
   103     -0.169594   7 O  py               58      0.169594   4 O  py        

 Vector   71  Occ=2.000000D+00  E=-3.803857D-01  Symmetry=a'
              MO Center=  4.0D-01, -3.9D-01,  2.1D-15, r^2= 9.9D+00
   Bfn.  Coefficient  Atom+Function         Bfn.  Coefficient  Atom+Function  
  ----- ------------  ---------------      ----- ------------  ---------------
   104     -0.215911   7 O  pz               59      0.215911   4 O  pz        
    74      0.189427   5 O  pz              134     -0.189427   9 O  pz        
   117     -0.152345   8 O  px               87     -0.152345   6 O  px        
   103     -0.151521   7 O  py               58     -0.151521   4 O  py        

 Vector   72  Occ=2.000000D+00  E=-3.764979D-01  Symmetry=a"
              MO Center= -3.4D-01,  1.4D-01, -9.1D-15, r^2= 1.0D+01
   Bfn.  Coefficient  Atom+Function         Bfn.  Coefficient  Atom+Function  
  ----- ------------  ---------------      ----- ------------  ---------------
    89     -0.280123   6 O  pz              119     -0.280123   8 O  pz        
    58     -0.181673   4 O  py              103      0.181673   7 O  py        
   132     -0.180698   9 O  px               72      0.180698   5 O  px        

 Vector   73  Occ=2.000000D+00  E=-3.709185D-01  Symmetry=a'
              MO Center=  2.8D-01, -3.5D-01,  2.0D-14, r^2= 9.2D+00
   Bfn.  Coefficient  Atom+Function         Bfn.  Coefficient  Atom+Function  
  ----- ------------  ---------------      ----- ------------  ---------------
    58     -0.230460   4 O  py              103     -0.230460   7 O  py        
     4      0.174014   1 O  px               72      0.162506   5 O  px        
   132      0.162506   9 O  px               73     -0.150012   5 O  py        
   133     -0.150012   9 O  py        

 Vector   74  Occ=2.000000D+00  E=-3.692353D-01  Symmetry=a"
              MO Center=  8.7D-02, -3.9D-01, -2.6D-14, r^2= 1.0D+01
   Bfn.  Coefficient  Atom+Function         Bfn.  Coefficient  Atom+Function  
  ----- ------------  ---------------      ----- ------------  ---------------
   104      0.236804   7 O  pz               59      0.236804   4 O  pz        
     6      0.211292   1 O  pz               74      0.204055   5 O  pz        
   134      0.204055   9 O  pz              119      0.165700   8 O  pz        
    89      0.165700   6 O  pz        

 Vector   75  Occ=2.000000D+00  E=-3.680296D-01  Symmetry=a'
              MO Center= -5.5D-01, -1.0D+00, -4.4D-15, r^2= 8.7D+00
   Bfn.  Coefficient  Atom+Function         Bfn.  Coefficient  Atom+Function  
  ----- ------------  ---------------      ----- ------------  ---------------
     5     -0.230097   1 O  py              133     -0.222248   9 O  py        
    73     -0.222248   5 O  py                4     -0.198200   1 O  px        
    72     -0.183160   5 O  px              132     -0.183160   9 O  px        
    74     -0.162744   5 O  pz              134      0.162744   9 O  pz        

 Vector   76  Occ=2.000000D+00  E=-3.559614D-01  Symmetry=a"
              MO Center=  5.8D-01,  8.6D-02,  2.1D-14, r^2= 1.0D+01
   Bfn.  Coefficient  Atom+Function         Bfn.  Coefficient  Atom+Function  
  ----- ------------  ---------------      ----- ------------  ---------------
    59     -0.213999   4 O  pz              104     -0.213999   7 O  pz        
   119      0.202537   8 O  pz               89      0.202537   6 O  pz        
   103      0.178681   7 O  py               58     -0.178681   4 O  py        

 Vector   77  Occ=2.000000D+00  E=-3.524741D-01  Symmetry=a"
              MO Center= -2.5D-01, -9.9D-01, -4.6D-15, r^2= 1.2D+01
   Bfn.  Coefficient  Atom+Function         Bfn.  Coefficient  Atom+Function  
  ----- ------------  ---------------      ----- ------------  ---------------
   134     -0.219944   9 O  pz               74     -0.219944   5 O  pz        
    73     -0.191177   5 O  py              133      0.191177   9 O  py        
   104      0.189023   7 O  pz               59      0.189023   4 O  pz        

 Vector   78  Occ=2.000000D+00  E=-3.448026D-01  Symmetry=a'
              MO Center= -2.8D-02, -2.5D-01, -2.8D-16, r^2= 1.2D+01
   Bfn.  Coefficient  Atom+Function         Bfn.  Coefficient  Atom+Function  
  ----- ------------  ---------------      ----- ------------  ---------------
    58      0.218069   4 O  py              103      0.218069   7 O  py        
    72      0.187378   5 O  px              132      0.187378   9 O  px        
   117     -0.180386   8 O  px               87     -0.180386   6 O  px        
   133     -0.165270   9 O  py               73     -0.165270   5 O  py        

 Vector   79  Occ=2.000000D+00  E=-3.434309D-01  Symmetry=a"
              MO Center=  1.6D-02, -2.4D-01, -2.2D-15, r^2= 1.2D+01
   Bfn.  Coefficient  Atom+Function         Bfn.  Coefficient  Atom+Function  
  ----- ------------  ---------------      ----- ------------  ---------------
    58      0.218877   4 O  py              103     -0.218877   7 O  py        
   132     -0.190928   9 O  px               72      0.190928   5 O  px        
    87     -0.176818   6 O  px              117      0.176818   8 O  px        
   133      0.152712   9 O  py               73     -0.152712   5 O  py        

 Vector   80  Occ=2.000000D+00  E=-3.267487D-01  Symmetry=a'
              MO Center= -4.4D-01, -2.2D-01,  3.8D-15, r^2= 8.3D+00
   Bfn.  Coefficient  Atom+Function         Bfn.  Coefficient  Atom+Function  
  ----- ------------  ---------------      ----- ------------  ---------------
     5      0.486360   1 O  py                8      0.251506   1 O  py        
     4      0.172676   1 O  px        

 Vector   81  Occ=2.000000D+00  E=-3.235781D-01  Symmetry=a'
              MO Center=  2.7D-01, -2.3D-01,  9.4D-16, r^2= 8.0D+00
   Bfn.  Coefficient  Atom+Function         Bfn.  Coefficient  Atom+Function  
  ----- ------------  ---------------      ----- ------------  ---------------
     4      0.496413   1 O  px                7      0.265745   1 O  px        
     5     -0.198576   1 O  py        

 Vector   82  Occ=2.000000D+00  E=-2.903017D-01  Symmetry=a'
              MO Center= -5.6D-01,  4.4D-01,  3.3D-16, r^2= 1.9D+01
   Bfn.  Coefficient  Atom+Function         Bfn.  Coefficient  Atom+Function  
  ----- ------------  ---------------      ----- ------------  ---------------
   191     -0.176020  12 Si pz              229      0.176020  14 Si pz        
    89     -0.169284   6 O  pz              119      0.169284   8 O  pz        
   284      0.150325  21 H  s               329      0.150325  30 H  s         

 Vector   83  Occ=2.000000D+00  E=-2.882352D-01  Symmetry=a'
              MO Center= -2.2D-01,  1.2D+00,  2.9D-13, r^2= 1.6D+01
   Bfn.  Coefficient  Atom+Function         Bfn.  Coefficient  Atom+Function  
  ----- ------------  ---------------      ----- ------------  ---------------
   189     -0.176221  12 Si px              227     -0.176221  14 Si px        

 Vector   84  Occ=2.000000D+00  E=-2.881683D-01  Symmetry=a"
              MO Center= -9.2D-01,  7.5D-01, -3.0D-13, r^2= 1.8D+01
   Bfn.  Coefficient  Atom+Function         Bfn.  Coefficient  Atom+Function  
  ----- ------------  ---------------      ----- ------------  ---------------
   191      0.174843  12 Si pz              229      0.174843  14 Si pz        
   119      0.159071   8 O  pz               89      0.159071   6 O  pz        
   209     -0.154673  13 Si py              171      0.154673  11 Si py        
   284     -0.151907  21 H  s               329      0.151907  30 H  s         

 Vector   85  Occ=2.000000D+00  E=-2.856848D-01  Symmetry=a"
              MO Center= -4.1D-01,  1.2D+00,  2.4D-14, r^2= 1.6D+01
   Bfn.  Coefficient  Atom+Function         Bfn.  Coefficient  Atom+Function  
  ----- ------------  ---------------      ----- ------------  ---------------
   227     -0.185166  14 Si px              189      0.185166  12 Si px        
   319     -0.162184  28 H  s               274      0.162184  19 H  s         

 Vector   86  Occ=2.000000D+00  E=-2.847635D-01  Symmetry=a'
              MO Center=  1.0D+00, -1.6D-01,  1.7D-14, r^2= 1.7D+01
   Bfn.  Coefficient  Atom+Function         Bfn.  Coefficient  Atom+Function  
  ----- ------------  ---------------      ----- ------------  ---------------
   259     -0.168078  16 H  s               304     -0.168078  25 H  s         
   152      0.155535  10 Si py              247      0.155535  15 Si py        

 Vector   87  Occ=2.000000D+00  E=-2.819400D-01  Symmetry=a"
              MO Center=  9.2D-01, -1.8D-01, -2.9D-14, r^2= 1.8D+01
   Bfn.  Coefficient  Atom+Function         Bfn.  Coefficient  Atom+Function  
  ----- ------------  ---------------      ----- ------------  ---------------
   304     -0.156699  25 H  s               259      0.156699  16 H  s         
   247      0.152288  15 Si py              152     -0.152288  10 Si py        

 Vector   88  Occ=2.000000D+00  E=-2.760388D-01  Symmetry=a"
              MO Center=  5.3D-01,  2.8D-01,  5.5D-14, r^2= 1.7D+01
   Bfn.  Coefficient  Atom+Function         Bfn.  Coefficient  Atom+Function  
  ----- ------------  ---------------      ----- ------------  ---------------
    89     -0.169158   6 O  pz              119     -0.169158   8 O  pz        

 Vector   89  Occ=2.000000D+00  E=-2.725421D-01  Symmetry=a"
              MO Center=  1.4D-01, -9.5D-01,  3.3D-14, r^2= 1.9D+01
   Bfn.  Coefficient  Atom+Function         Bfn.  Coefficient  Atom+Function  
  ----- ------------  ---------------      ----- ------------  ---------------
   104     -0.167892   7 O  pz               59     -0.167892   4 O  pz        
   299     -0.153492  24 H  s               344      0.153492  33 H  s         

 Vector   90  Occ=2.000000D+00  E=-2.720805D-01  Symmetry=a'
              MO Center=  2.4D-01,  3.9D-01, -7.1D-14, r^2= 1.4D+01
   Bfn.  Coefficient  Atom+Function         Bfn.  Coefficient  Atom+Function  
  ----- ------------  ---------------      ----- ------------  ---------------
     5     -0.207741   1 O  py              119      0.193359   8 O  pz        
    89     -0.193359   6 O  pz              103      0.168166   7 O  py        
    58      0.168166   4 O  py        

 Vector   91  Occ=2.000000D+00  E=-2.705994D-01  Symmetry=a'
              MO Center= -7.2D-01, -3.0D-01, -5.3D-14, r^2= 1.7D+01
   Bfn.  Coefficient  Atom+Function         Bfn.  Coefficient  Atom+Function  
  ----- ------------  ---------------      ----- ------------  ---------------
   133      0.217047   9 O  py               73      0.217047   5 O  py        

 Vector   92  Occ=2.000000D+00  E=-2.684070D-01  Symmetry=a"
              MO Center= -1.0D-01,  2.3D-01,  6.0D-14, r^2= 1.6D+01
   Bfn.  Coefficient  Atom+Function         Bfn.  Coefficient  Atom+Function  
  ----- ------------  ---------------      ----- ------------  ---------------
    58     -0.184173   4 O  py              103      0.184173   7 O  py        
    87      0.161715   6 O  px              117     -0.161715   8 O  px        
    72     -0.155471   5 O  px              132      0.155471   9 O  px        

 Vector   93  Occ=2.000000D+00  E=-2.674623D-01  Symmetry=a'
              MO Center=  2.2D-01, -7.1D-01, -2.5D-14, r^2= 1.6D+01
   Bfn.  Coefficient  Atom+Function         Bfn.  Coefficient  Atom+Function  
  ----- ------------  ---------------      ----- ------------  ---------------
   104      0.213545   7 O  pz               59     -0.213545   4 O  pz        
   132      0.213317   9 O  px               72      0.213317   5 O  px        
     4     -0.209200   1 O  px        

 Vector   94  Occ=0.000000D+00  E=-5.203981D-02  Symmetry=a'
              MO Center=  3.4D-03,  6.5D-01, -4.4D-16, r^2= 1.7D+01
   Bfn.  Coefficient  Atom+Function         Bfn.  Coefficient  Atom+Function  
  ----- ------------  ---------------      ----- ------------  ---------------
    86      0.322511   6 O  s               116      0.322511   8 O  s         
   193      0.311646  12 Si py              231      0.311646  14 Si py        
   154      0.300823  10 Si px              249      0.300823  15 Si px        
   101      0.253947   7 O  s                56      0.253947   4 O  s         
   131      0.225347   9 O  s                71      0.225347   5 O  s         

 Vector   95  Occ=0.000000D+00  E=-3.553315D-02  Symmetry=a"
              MO Center= -3.8D-01,  3.5D-01, -1.8D-14, r^2= 2.0D+01
   Bfn.  Coefficient  Atom+Function         Bfn.  Coefficient  Atom+Function  
  ----- ------------  ---------------      ----- ------------  ---------------
    19      0.430876   2 Si s                38     -0.430876   3 Si s         
   231     -0.386435  14 Si py              193      0.386435  12 Si py        
   249     -0.318305  15 Si px              154      0.318305  10 Si px        
   175      0.299332  11 Si pz              213      0.299332  13 Si pz        
    86      0.257150   6 O  s               116     -0.257150   8 O  s         

 Vector   96  Occ=0.000000D+00  E=-1.833511D-02  Symmetry=a'
              MO Center=  1.3D+00,  1.1D+00, -2.1D-15, r^2= 1.7D+01
   Bfn.  Coefficient  Atom+Function         Bfn.  Coefficient  Atom+Function  
  ----- ------------  ---------------      ----- ------------  ---------------
   154      0.441441  10 Si px              249      0.441441  15 Si px        
   231     -0.365339  14 Si py              193     -0.365339  12 Si py        
    56      0.338376   4 O  s               101      0.338376   7 O  s         
   156      0.301229  10 Si pz              251     -0.301229  15 Si pz        
   232      0.282388  14 Si pz              194     -0.282388  12 Si pz        

 Vector   97  Occ=0.000000D+00  E=-1.213617D-02  Symmetry=a'
              MO Center= -1.2D+00, -7.5D-01, -2.2D-16, r^2= 2.3D+01
   Bfn.  Coefficient  Atom+Function         Bfn.  Coefficient  Atom+Function  
  ----- ------------  ---------------      ----- ------------  ---------------
   175      0.560390  11 Si pz              213     -0.560390  13 Si pz        
    71      0.364239   5 O  s               131      0.364239   9 O  s         
   173     -0.313007  11 Si px              211     -0.313007  13 Si px        
   194     -0.243135  12 Si pz              232      0.243135  14 Si pz        
   230      0.228522  14 Si px              192      0.228522  12 Si px        

 Vector   98  Occ=0.000000D+00  E=-8.120727D-03  Symmetry=a"
              MO Center=  2.1D-01, -5.5D-01, -7.5D-15, r^2= 2.5D+01
   Bfn.  Coefficient  Atom+Function         Bfn.  Coefficient  Atom+Function  
  ----- ------------  ---------------      ----- ------------  ---------------
   249      0.535947  15 Si px              154     -0.535947  10 Si px        
   213      0.501012  13 Si pz              175      0.501012  11 Si pz        
    71      0.308117   5 O  s               131     -0.308117   9 O  s         
   173     -0.302594  11 Si px              211      0.302594  13 Si px        
   230     -0.292246  14 Si px              192      0.292246  12 Si px        

 Vector   99  Occ=0.000000D+00  E=-6.342470D-03  Symmetry=a"
              MO Center=  2.4D-01,  1.3D+00, -1.1D-15, r^2= 2.1D+01
   Bfn.  Coefficient  Atom+Function         Bfn.  Coefficient  Atom+Function  
  ----- ------------  ---------------      ----- ------------  ---------------
   231     -0.554937  14 Si py              193      0.554937  12 Si py        
   249      0.428461  15 Si px              154     -0.428461  10 Si px        
   116     -0.330750   8 O  s                86      0.330750   6 O  s         
   101      0.306848   7 O  s                56     -0.306848   4 O  s         
   230      0.252098  14 Si px              192     -0.252098  12 Si px        

 Vector  100  Occ=0.000000D+00  E= 1.595705D-02  Symmetry=a'
              MO Center= -6.8D-01,  2.1D+00,  8.0D-14, r^2= 1.4D+01
   Bfn.  Coefficient  Atom+Function         Bfn.  Coefficient  Atom+Function  
  ----- ------------  ---------------      ----- ------------  ---------------
   284      0.684244  21 H  s               329      0.684244  30 H  s         
   232      0.489617  14 Si pz              194     -0.489617  12 Si pz        
   185     -0.429931  12 Si s               223     -0.429931  14 Si s         
   193      0.403855  12 Si py              231      0.403855  14 Si py        
   174      0.308128  11 Si py              212      0.308128  13 Si py        

 Vector  101  Occ=0.000000D+00  E= 1.906058D-02  Symmetry=a'
              MO Center=  6.4D-01,  3.3D-01, -1.3D-13, r^2= 1.9D+01
   Bfn.  Coefficient  Atom+Function         Bfn.  Coefficient  Atom+Function  
  ----- ------------  ---------------      ----- ------------  ---------------
[...]
    23     -0.735048   2 Si px               42     -0.735048   3 Si px        
   147     -0.552221  10 Si s               242     -0.552221  15 Si s         
    25     -0.441428   2 Si pz               44      0.441428   3 Si pz        
    28     -0.430362   2 Si pz               47      0.430362   3 Si pz        
   166      0.409716  11 Si s               204      0.409716  13 Si s         

 Vector  147  Occ=0.000000D+00  E= 2.625960D-01  Symmetry=a'
              MO Center=  4.9D-02,  1.2D-01, -7.9D-14, r^2= 1.3D+01
   Bfn.  Coefficient  Atom+Function         Bfn.  Coefficient  Atom+Function  
  ----- ------------  ---------------      ----- ------------  ---------------
   185      1.066407  12 Si s               223      1.066407  14 Si s         
   242     -0.620412  15 Si s               147     -0.620412  10 Si s         
    43      0.491094   3 Si py               24      0.491094   2 Si py        
   222     -0.490648  14 Si s               184     -0.490648  12 Si s         
    19     -0.485531   2 Si s                38     -0.485531   3 Si s         

 Vector  148  Occ=0.000000D+00  E= 2.726527D-01  Symmetry=a"
              MO Center= -9.8D-01, -3.6D-02, -6.3D-15, r^2= 1.1D+01
   Bfn.  Coefficient  Atom+Function         Bfn.  Coefficient  Atom+Function  
  ----- ------------  ---------------      ----- ------------  ---------------
    45      1.177411   3 Si px               26     -1.177411   2 Si px        
    47     -0.685366   3 Si pz               28     -0.685366   2 Si pz        
    19      0.676687   2 Si s                38     -0.676687   3 Si s         
    23     -0.660136   2 Si px               42      0.660136   3 Si px        
   166      0.525837  11 Si s               204     -0.525837  13 Si s         

 Vector  149  Occ=0.000000D+00  E= 2.925389D-01  Symmetry=a'
              MO Center= -2.3D-02, -5.2D-01, -2.0D-13, r^2= 1.5D+01
   Bfn.  Coefficient  Atom+Function         Bfn.  Coefficient  Atom+Function  
  ----- ------------  ---------------      ----- ------------  ---------------
    19     -1.040839   2 Si s                38     -1.040839   3 Si s         
   242      0.927534  15 Si s               147      0.927534  10 Si s         
    47      0.875900   3 Si pz               28     -0.875900   2 Si pz        
   204      0.714129  13 Si s               166      0.714129  11 Si s         
    44      0.579842   3 Si pz               25     -0.579842   2 Si pz        

 Vector  150  Occ=0.000000D+00  E= 2.962018D-01  Symmetry=a"
              MO Center=  1.0D+00,  4.0D-01, -9.2D-15, r^2= 1.2D+01
   Bfn.  Coefficient  Atom+Function         Bfn.  Coefficient  Atom+Function  
  ----- ------------  ---------------      ----- ------------  ---------------
    38      1.516771   3 Si s                19     -1.516771   2 Si s         
    28      1.028280   2 Si pz               47      1.028280   3 Si pz        
    26     -0.928064   2 Si px               45      0.928064   3 Si px        
    46      0.721279   3 Si py               27     -0.721279   2 Si py        
   246     -0.563802  15 Si px              151      0.563802  10 Si px        

 Vector  151  Occ=0.000000D+00  E= 3.093127D-01  Symmetry=a"
              MO Center= -9.9D-02, -4.1D-01,  1.9D-13, r^2= 1.5D+01
   Bfn.  Coefficient  Atom+Function         Bfn.  Coefficient  Atom+Function  
  ----- ------------  ---------------      ----- ------------  ---------------
   204     -1.645316  13 Si s               166      1.645316  11 Si s         
    28     -1.628899   2 Si pz               47     -1.628899   3 Si pz        
   147      0.995351  10 Si s               242     -0.995351  15 Si s         
   223     -0.992401  14 Si s               185      0.992401  12 Si s         
    46      0.627347   3 Si py               27     -0.627347   2 Si py        

 Vector  152  Occ=0.000000D+00  E= 3.266833D-01  Symmetry=a'
              MO Center=  6.3D-01, -2.8D-01,  1.6D-14, r^2= 1.5D+01
   Bfn.  Coefficient  Atom+Function         Bfn.  Coefficient  Atom+Function  
  ----- ------------  ---------------      ----- ------------  ---------------
   242      1.858399  15 Si s               147      1.858399  10 Si s         
   166     -1.386749  11 Si s               204     -1.386749  13 Si s         
    26     -0.849325   2 Si px               45     -0.849325   3 Si px        
   241     -0.847215  15 Si s               146     -0.847215  10 Si s         
   185     -0.665642  12 Si s               223     -0.665642  14 Si s         

 Vector  153  Occ=0.000000D+00  E= 3.647169D-01  Symmetry=a'
              MO Center=  1.1D-01,  7.9D-01,  2.8D-14, r^2= 1.1D+01
   Bfn.  Coefficient  Atom+Function         Bfn.  Coefficient  Atom+Function  
  ----- ------------  ---------------      ----- ------------  ---------------
    38      1.818627   3 Si s                19      1.818627   2 Si s         
   185     -1.776596  12 Si s               223     -1.776596  14 Si s         
    37     -0.754624   3 Si s                18     -0.754624   2 Si s         
   184      0.640546  12 Si s               222      0.640546  14 Si s         
   147     -0.576265  10 Si s               242     -0.576265  15 Si s         

 Vector  154  Occ=0.000000D+00  E= 3.721560D-01  Symmetry=a'
              MO Center= -4.7D-01, -9.1D-01,  2.6D-14, r^2= 1.6D+01
   Bfn.  Coefficient  Atom+Function         Bfn.  Coefficient  Atom+Function  
  ----- ------------  ---------------      ----- ------------  ---------------
   166     -2.457747  11 Si s               204     -2.457747  13 Si s         
    38      1.945338   3 Si s                19      1.945338   2 Si s         
   147     -1.077768  10 Si s               242     -1.077768  15 Si s         
   165      0.960710  11 Si s               203      0.960710  13 Si s         
   223      0.781426  14 Si s               185      0.781426  12 Si s         

 Vector  155  Occ=0.000000D+00  E= 3.755624D-01  Symmetry=a"
              MO Center= -3.0D-01, -3.4D-01,  8.9D-16, r^2= 1.6D+01
   Bfn.  Coefficient  Atom+Function         Bfn.  Coefficient  Atom+Function  
  ----- ------------  ---------------      ----- ------------  ---------------
   204     -2.380584  13 Si s               166      2.380584  11 Si s         
   242      1.472788  15 Si s               147     -1.472788  10 Si s         
    26      1.358913   2 Si px               45     -1.358913   3 Si px        
   203      0.922826  13 Si s               165     -0.922826  11 Si s         
    47     -0.752372   3 Si pz               28     -0.752372   2 Si pz        

 Vector  156  Occ=0.000000D+00  E= 4.207125D-01  Symmetry=a"
              MO Center=  3.2D-01,  4.3D-01,  3.8D-14, r^2= 1.4D+01
   Bfn.  Coefficient  Atom+Function         Bfn.  Coefficient  Atom+Function  
  ----- ------------  ---------------      ----- ------------  ---------------
    38     -2.216797   3 Si s                19      2.216797   2 Si s         
   223      2.201955  14 Si s               185     -2.201955  12 Si s         
   166      1.073796  11 Si s               204     -1.073796  13 Si s         
   242      0.964664  15 Si s               147     -0.964664  10 Si s         
    46     -0.820947   3 Si py               27      0.820947   2 Si py        

 Vector  157  Occ=0.000000D+00  E= 4.390213D-01  Symmetry=a'
              MO Center= -1.3D-01, -4.3D-01,  8.2D-15, r^2= 1.1D+01
   Bfn.  Coefficient  Atom+Function         Bfn.  Coefficient  Atom+Function  
  ----- ------------  ---------------      ----- ------------  ---------------
   218     -0.361161  13 Si dyz             180      0.361161  11 Si dyz       
    76     -0.351587   5 O  py              136     -0.351587   9 O  py        
    62      0.285916   4 O  pz              107     -0.285916   7 O  pz        
    73      0.277589   5 O  py              133      0.277589   9 O  py        
    59     -0.276484   4 O  pz              104      0.276484   7 O  pz        

 Vector  158  Occ=0.000000D+00  E= 4.429849D-01  Symmetry=a"
              MO Center=  6.0D-01, -5.2D-01,  4.7D-15, r^2= 1.5D+01
   Bfn.  Coefficient  Atom+Function         Bfn.  Coefficient  Atom+Function  
  ----- ------------  ---------------      ----- ------------  ---------------
   242      1.711927  15 Si s               147     -1.711927  10 Si s         
    38     -1.251951   3 Si s                19      1.251951   2 Si s         
   185      0.901540  12 Si s               223     -0.901540  14 Si s         
    45     -0.675385   3 Si px               26      0.675385   2 Si px        
   241     -0.584404  15 Si s               146      0.584404  10 Si s         

 Vector  159  Occ=0.000000D+00  E= 4.460884D-01  Symmetry=a'
              MO Center=  9.1D-01, -1.7D-01, -6.5D-14, r^2= 8.9D+00
   Bfn.  Coefficient  Atom+Function         Bfn.  Coefficient  Atom+Function  
  ----- ------------  ---------------      ----- ------------  ---------------
   256      0.456009  15 Si dyz             161     -0.456009  10 Si dyz       
     8     -0.328246   1 O  py              106      0.321446   7 O  py        
    61      0.321446   4 O  py                5      0.313750   1 O  py        
   103     -0.311939   7 O  py               58     -0.311939   4 O  py        
   185      0.281219  12 Si s               223      0.281219  14 Si s         

 Vector  160  Occ=0.000000D+00  E= 4.482158D-01  Symmetry=a"
              MO Center= -1.5D-01,  5.7D-01,  3.0D-13, r^2= 1.3D+01
   Bfn.  Coefficient  Atom+Function         Bfn.  Coefficient  Atom+Function  
  ----- ------------  ---------------      ----- ------------  ---------------
    38     -1.413597   3 Si s                19      1.413597   2 Si s         
   242      0.982758  15 Si s               147     -0.982758  10 Si s         
   204      0.593095  13 Si s               166     -0.593095  11 Si s         
   199      0.402875  12 Si dyz             237      0.402875  14 Si dyz       
   146      0.397266  10 Si s               241     -0.397266  15 Si s         

 Vector  161  Occ=0.000000D+00  E= 4.532865D-01  Symmetry=a'
              MO Center=  3.3D-03, -5.9D-01, -1.0D-13, r^2= 1.3D+01
   Bfn.  Coefficient  Atom+Function         Bfn.  Coefficient  Atom+Function  
  ----- ------------  ---------------      ----- ------------  ---------------
   204     -0.572181  13 Si s               166     -0.572181  11 Si s         
   242      0.479221  15 Si s               147      0.479221  10 Si s         
   137     -0.386873   9 O  pz               77      0.386873   5 O  pz        
   218     -0.340573  13 Si dyz             180      0.340573  11 Si dyz       
   105     -0.322969   7 O  px               60     -0.322969   4 O  px        

 Vector  162  Occ=0.000000D+00  E= 4.535708D-01  Symmetry=a"
              MO Center= -1.6D-02, -6.5D-01,  2.1D-14, r^2= 1.2D+01
   Bfn.  Coefficient  Atom+Function         Bfn.  Coefficient  Atom+Function  
  ----- ------------  ---------------      ----- ------------  ---------------
    19     -0.823982   2 Si s                38      0.823982   3 Si s         
   166      0.798327  11 Si s               204     -0.798327  13 Si s         
     9      0.780520   1 O  pz              242      0.589820  15 Si s         
   147     -0.589820  10 Si s               223     -0.448044  14 Si s         
   185      0.448044  12 Si s               216     -0.378705  13 Si dxz       

 Vector  163  Occ=0.000000D+00  E= 4.565867D-01  Symmetry=a'
              MO Center= -5.1D-01,  1.1D+00, -4.5D-13, r^2= 1.2D+01
   Bfn.  Coefficient  Atom+Function         Bfn.  Coefficient  Atom+Function  
  ----- ------------  ---------------      ----- ------------  ---------------
   237      0.490471  14 Si dyz             199     -0.490471  12 Si dyz       
   204     -0.444725  13 Si s               166     -0.444725  11 Si s         
   185      0.428583  12 Si s               223      0.428583  14 Si s         
   121     -0.345154   8 O  py               91     -0.345154   6 O  py        
   234     -0.325721  14 Si dxy             196     -0.325721  12 Si dxy       

 Vector  164  Occ=0.000000D+00  E= 4.615431D-01  Symmetry=a"
              MO Center= -5.7D-01,  2.0D-01,  4.8D-13, r^2= 1.5D+01
   Bfn.  Coefficient  Atom+Function         Bfn.  Coefficient  Atom+Function  
  ----- ------------  ---------------      ----- ------------  ---------------
   204     -1.148760  13 Si s               166      1.148760  11 Si s         
   147      0.976752  10 Si s               242     -0.976752  15 Si s         
    38      0.908651   3 Si s                19     -0.908651   2 Si s         
   185     -0.875432  12 Si s               223      0.875432  14 Si s         
    27      0.470624   2 Si py               46     -0.470624   3 Si py        

 Vector  165  Occ=0.000000D+00  E= 4.650273D-01  Symmetry=a'
              MO Center= -9.2D-01,  7.5D-01, -2.9D-13, r^2= 1.3D+01
   Bfn.  Coefficient  Atom+Function         Bfn.  Coefficient  Atom+Function  
  ----- ------------  ---------------      ----- ------------  ---------------
   235     -0.438284  14 Si dxz             197      0.438284  12 Si dxz       
   218     -0.338894  13 Si dyz             180      0.338894  11 Si dyz       
   234      0.330752  14 Si dxy             196      0.330752  12 Si dxy       
   237     -0.320367  14 Si dyz             199      0.320367  12 Si dyz       
   216      0.266892  13 Si dxz             178     -0.266892  11 Si dxz       

 Vector  166  Occ=0.000000D+00  E= 4.845394D-01  Symmetry=a"
              MO Center=  7.3D-03,  3.7D-01,  1.0D-14, r^2= 1.3D+01
   Bfn.  Coefficient  Atom+Function         Bfn.  Coefficient  Atom+Function  
  ----- ------------  ---------------      ----- ------------  ---------------
   242     -1.215144  15 Si s               147      1.215144  10 Si s         
    38      1.155439   3 Si s                19     -1.155439   2 Si s         
   204     -0.999032  13 Si s               166      0.999032  11 Si s         
    27      0.609523   2 Si py               46     -0.609523   3 Si py        
   185     -0.491242  12 Si s               223      0.491242  14 Si s         

 Vector  167  Occ=0.000000D+00  E= 4.894600D-01  Symmetry=a'
              MO Center= -5.6D-02, -2.1D-01,  4.4D-14, r^2= 1.4D+01
   Bfn.  Coefficient  Atom+Function         Bfn.  Coefficient  Atom+Function  
  ----- ------------  ---------------      ----- ------------  ---------------
    19      0.879401   2 Si s                38      0.879401   3 Si s         
   223     -0.644862  14 Si s               185     -0.644862  12 Si s         
   180      0.437165  11 Si dyz             218     -0.437165  13 Si dyz       
    46      0.400643   3 Si py               27      0.400643   2 Si py        
    91      0.373569   6 O  py              121      0.373569   8 O  py        

 Vector  168  Occ=0.000000D+00  E= 5.023037D-01  Symmetry=a"
              MO Center= -1.5D-01,  2.0D-01, -2.7D-14, r^2= 9.5D+00
   Bfn.  Coefficient  Atom+Function         Bfn.  Coefficient  Atom+Function  
  ----- ------------  ---------------      ----- ------------  ---------------
    19      1.873860   2 Si s                38     -1.873860   3 Si s         
   185     -0.981583  12 Si s               223      0.981583  14 Si s         
    47     -0.506701   3 Si pz               28     -0.506701   2 Si pz        
    50     -0.438402   3 Si dxz              31     -0.438402   2 Si dxz       
     9     -0.429915   1 O  pz              122      0.355693   8 O  pz        


 center of mass
 --------------
 x =  -0.00154070 y =  -0.03892626 z =   0.00000000

 moments of inertia (a.u.)
 ------------------
       10211.947106327363          -0.000000000220           0.000000000000
          -0.000000000220       10986.893236464955           0.000000000000
           0.000000000000           0.000000000000        5835.541935203861

     Multipole analysis of the density
     ---------------------------------

     L   x y z        total         alpha         beta         nuclear
     -   - - -        -----         -----         ----         -------
     0   0 0 0      0.000000    -93.000000    -93.000000    186.000000

     1   1 0 0     -0.011220     -0.005610     -0.005610      0.000000
     1   0 1 0      0.629931      0.314965      0.314965      0.000000
     1   0 0 1      0.000000      0.000000      0.000000      0.000000

     2   2 0 0   -110.629612   -982.833412   -982.833412   1855.037211
     2   1 1 0     -0.099812      0.303499      0.303499     -0.706811
     2   1 0 1      0.000000      0.000000      0.000000      0.000000
     2   0 2 0   -113.857058   -765.243926   -765.243926   1416.630794
     2   0 1 1      0.000000      0.000000      0.000000      0.000000
     2   0 0 2   -108.422382  -2151.110113  -2151.110113   4193.797844


 Task  times  cpu:       62.9s     wall:       63.5s
 Summary of allocated global arrays
-----------------------------------
  No active global arrays



                         GA Statistics for process    0
                         ------------------------------

       create   destroy   get      put      acc     scatter   gather  read&inc
calls:  253      253     1.75e+05 5.16e+04 9.97e+04    0        0     2.77e+04 
number of processes/call 1.09e+00 1.04e+00 1.00e+00 0.00e+00 0.00e+00
bytes total:             3.84e+08 8.12e+07 1.28e+08 0.00e+00 0.00e+00 2.21e+05
bytes remote:            2.36e+08 3.11e+07 8.91e+07 0.00e+00 0.00e+00 0.00e+00
Max memory consumed for GA by this process: 12993592 bytes
MA_summarize_allocated_blocks: starting scan ...
MA_summarize_allocated_blocks: scan completed: 0 heap blocks, 0 stack blocks
MA usage statistics:

	allocation statistics:
					      heap	     stack
					      ----	     -----
	current number of blocks	         0	         0
	maximum number of blocks	        29	        52
	current total bytes		         0	         0
	maximum total bytes		   5322136	  60103312
	maximum total K-bytes		      5323	     60104
	maximum total M-bytes		         6	        61


                                NWChem Input Module
                                -------------------





                                     CITATION
                                     --------
                Please cite the following reference when publishing
                           results obtained with NWChem:

                 M. Valiev, E.J. Bylaska, N. Govind, K. Kowalski,
              T.P. Straatsma, H.J.J. van Dam, D. Wang, J. Nieplocha,
                        E. Apra, T.L. Windus, W.A. de Jong
                 "NWChem: a comprehensive and scalable open-source
                  solution for large scale molecular simulations"
                      Comput. Phys. Commun. 181, 1477 (2010)
                           doi:10.1016/j.cpc.2010.04.018

                              AUTHORS & CONTRIBUTORS
                              ----------------------
      E. J. Bylaska, W. A. de Jong, N. Govind, K. Kowalski, T. P. Straatsma,
     M. Valiev, H. J. J. van Dam, D. Wang, E. Apra, T. L. Windus, J. Hammond,
     J. Autschbach, P. Nichols, S. Hirata, M. T. Hackler, Y. Zhao, P.-D. Fan,
      R. J. Harrison, M. Dupuis, D. M. A. Smith, K. Glaesemann, J. Nieplocha,
      V. Tipparaju, M. Krishnan, A. Vazquez-Mayagoitia, L. Jensen, M. Swart,
      Q. Wu, T. Van Voorhis, A. A. Auer, M. Nooijen, L. D. Crosby, E. Brown,
             G. Cisneros, G. I. Fann, H. Fruchtl, J. Garza, K. Hirao,
        R. Kendall, J. A. Nichols, K. Tsemekhman, K. Wolinski, J. Anchell,
       D. Bernholdt, P. Borowski, T. Clark, D. Clerc, H. Dachsel, M. Deegan,
        K. Dyall, D. Elwood, E. Glendening, M. Gutowski, A. Hess, J. Jaffe,
        B. Johnson, J. Ju, R. Kobayashi, R. Kutteh, Z. Lin, R. Littlefield,
    X. Long, B. Meng, T. Nakajima, S. Niu, L. Pollack, M. Rosing, G. Sandrone,
       M. Stave, H. Taylor, G. Thomas, J. H. van Lenthe, A. Wong, Z. Zhang.

 Total times  cpu:       63.0s     wall:       63.6s
