ARMCI configured for 2 cluster nodes
 argument  1 = dft_siosi3.nw
 


============================== echo of input deck ==============================
title siosi3

start siosi3_64
memory 140 mb
echo

geometry units au
O 0.000000 0.000000 0.000000
Si 3.014576 0.000000 0.000000
Si -2.508676 -1.669137 0.090355
O 3.981166 -1.323122 -2.508935
O 3.870273 2.910825 0.000000
O 4.041116 -1.465033 2.376888
O -2.655663 -3.328781 -2.400368
O -2.480544 -3.435889 2.483573
O -4.832471 0.280842 0.142363
Si 5.637169 -3.319181 -4.029830
Si 5.930953 4.953101 0.791790
Si 5.468246 -2.250324 4.885188
Si -7.654391 0.847590 1.014023
Si -3.158194 -4.857247 5.026302
Si -2.974151 -5.921535 -3.888964
H 5.270061 -6.079998 -2.949279
H 8.494671 -2.562004 -3.822741
H 4.688562 -3.250915 -6.887353
H 4.114112 -1.013523 7.254688
H 5.390639 -5.229699 5.239395
H 8.311107 -1.375146 4.719652
H 5.236878 7.507709 -0.616368
H 5.938739 5.355645 3.732678
H 8.621652 4.058320 -0.087848
H -1.107625 -8.007345 -2.844945
H -5.765149 -6.871347 -3.589463
H -2.308182 -5.365343 -6.772894
H -2.645080 -3.056162 7.365261
H -1.433339 -7.291917 5.351028
H -6.013502 -5.704069 4.953988
H -8.533456 3.346292 -0.391100
H -7.795607 1.205101 3.957357
H -9.424475 -1.395251 0.207369
end

dft
  noio
  convergence nolevelshifting nodamping
  print "dft timings"
  tolerances acccoul 10
end

basis "ao basis" cartesian print segment
H  library "DZVP2 (DFT Orbital)"
O  library "DZVP (DFT Orbital)"
Si library "DZVP (DFT Orbital)"
end

basis "cd basis" cartesian print segment
H  library "DGauss A2 DFT Coulomb Fitting"
O  library "DGauss A1 DFT Coulomb Fitting"
Si library "DGauss A1 DFT Coulomb Fitting"
end

task dft

================================================================================


                                         
                                         
 
 
              Northwest Computational Chemistry Package (NWChem) 4.0
              ------------------------------------------------------
 
 
                    Environmental Molecular Sciences Laboratory
                       Pacific Northwest National Laboratory
                                Richland, WA 99352
 
                                         
                                         
 
 
            COPYRIGHT (C) 1994, 1995, 1996, 1997, 1998, 1999, 2000, 2001
                        Pacific Northwest National Laboratory,
                             Battelle Memorial Institute.
 
                            >>> All Rights Reserved <<<
 
 
                                    DISCLAIMER
                                    ----------

            This material was prepared as an account of work sponsored
            by an agency of the United States Government.  Neither the
            United States Government nor the United States Department
            of Energy, nor Battelle, nor any of their employees, MAKES
            ANY WARRANTY, EXPRESS OR IMPLIED, OR ASSUMES ANY LEGAL
            LIABILITY OR RESPONSIBILITY FOR THE ACCURACY, COMPLETENESS,
            OR USEFULNESS OF ANY INFORMATION, APPARATUS, PRODUCT,
            SOFTWARE, OR PROCESS DISCLOSED, OR REPRESENTS THAT ITS USE
            WOULD NOT INFRINGE PRIVATELY OWNED RIGHTS.


                                    LIMITED USE
                                    -----------

            This software (including any documentation) is being made
            available to you for your internal use only, solely for use
            in performance of work directly for the U.S. Federal
            Government or work under contracts with the U.S. Department
            of Energy or other U.S. Federal Government agencies.  This
            software is a version which has not yet been evaluated and
            cleared for commercialization.  Adherence to this notice
            may be necessary for the author, Battelle Memorial
            Institute, to successfully assert copyright in and
            commercialize this software. This software is not intended
            for duplication or distribution to third parties without
            the permission of the Manager of Software Products at
            Pacific Northwest National Laboratory, Richland,
            Washington, 99352.


                                  ACKNOWLEDGMENT
                                  --------------

            This software and its documentation were produced with
            Government support under Contract Number DE-AC06-76RLO-1830
            awarded by the United States Department of Energy.  The
            Government retains a paid-up non-exclusive, irrevocable
            worldwide license to reproduce, prepare derivative works,
            perform publicly and display publicly by or for the
            Government, including the right to distribute to other
            Government contractors.


           Job information
           ---------------

    hostname      = gestalt0
    program       = /home/edo/nwchem/bin/DECOSF/nwchem.kill
    date          = Thu Nov 15 10:08:12 2001

    compiled      = Thu Nov 15 09:59:15 PST 2001
    source        = /home/edo/nwchem
    nwchem branch = Development
    input         = dft_siosi3.nw
    prefix        = siosi3_64.
    data base     = ./siosi3_64.db
    status        = startup
    nproc         =    8
    time left     =     -1s



           Memory information
           ------------------

    heap      =    4587516 doubles =     35.0 Mbytes
    stack     =    4587513 doubles =     35.0 Mbytes
    global    =    9175040 doubles =     70.0 Mbytes (distinct from heap & stack)
    total     =   18350069 doubles =    140.0 Mbytes
    verify    = yes
    hardfail  = no 


           Directory information
           ---------------------
 
  0 permanent = .
  0 scratch   = .
 
 
 
 
                                NWChem Input Module
                                -------------------
 
 
                                      siosi3
                                      ------
 
 CS  symmetry detected

          ------
          auto-z
          ------
 
 
                             Geometry "geometry" -> ""
                             -------------------------
 
 Output coordinates in a.u. (scale by  1.000000000 to convert to a.u.)
 
  No.       Tag          Charge          X              Y              Z
 ---- ---------------- ---------- -------------- -------------- --------------
    1 O                    8.0000    -0.58768366    -1.37681278     0.00000000
    2 Si                  14.0000    -0.09040124    -0.65901094     2.88532905
    3 Si                  14.0000    -0.09040124    -0.65901094    -2.88532905
    4 O                    8.0000     2.83339551    -0.96350747     3.46705761
    5 O                    8.0000    -1.66283486    -2.65245282     4.54628505
    6 O                    8.0000    -0.93954127     2.14395728     3.40689390
    7 O                    8.0000     2.83339551    -0.96350747    -3.46705761
    8 O                    8.0000    -0.93954127     2.14395728    -3.40689390
    9 O                    8.0000    -1.66283486    -2.65245282    -4.54628505
   10 Si                  14.0000     5.48519233     0.00797098     4.49852536
   11 Si                  14.0000    -3.15176314    -3.21944682     7.09693912
   12 Si                  14.0000    -2.22675343     4.60953295     4.50642396
   13 Si                  14.0000    -3.15176314    -3.21944682    -7.09693912
   14 Si                  14.0000    -2.22675343     4.60953295    -4.50642396
   15 Si                  14.0000     5.48519233     0.00797098    -4.49852536
   16 H                    1.0000     6.19482498     2.66492089     3.33168241
   17 H                    1.0000     5.34693571     0.24339872     7.44928389
   18 H                    1.0000     7.54980555    -2.01586225     3.65507638
   19 H                    1.0000    -5.05332177     4.80169037     3.53097993
   20 H                    1.0000    -0.76591126     7.05647082     3.56482401
   21 H                    1.0000    -2.14201596     4.52466561     7.48312954
   22 H                    1.0000    -3.65580930    -6.17363924     7.19357761
   23 H                    1.0000    -5.71471166    -1.72405931     7.17477798
   24 H                    1.0000    -1.48506003    -2.44095670     9.42723832
   25 H                    1.0000     6.19482498     2.66492089    -3.33168241
   26 H                    1.0000     5.34693571     0.24339872    -7.44928389
   27 H                    1.0000     7.54980555    -2.01586225    -3.65507638
   28 H                    1.0000    -5.05332177     4.80169037    -3.53097993
   29 H                    1.0000    -0.76591126     7.05647082    -3.56482401
   30 H                    1.0000    -2.14201596     4.52466561    -7.48312954
   31 H                    1.0000    -3.65580930    -6.17363924    -7.19357761
   32 H                    1.0000    -5.71471166    -1.72405931    -7.17477798
   33 H                    1.0000    -1.48506003    -2.44095670    -9.42723832
 
      Atomic Mass 
      ----------- 
 
      O                 15.994910
      Si                27.976930
      H                  1.007825
 

 Effective nuclear repulsion energy (a.u.)    2313.2423767735

            Nuclear Dipole moment (a.u.) 
            ----------------------------
        X                 Y               Z
 ---------------- ---------------- ----------------
     0.0000000000     0.0000000000     0.0000000000
 
      Symmetry information
      --------------------
 
 Group name             Cs        
 Group number              2
 Group order               2
 No. of unique centers    17
 
      Symmetry unique atoms
 
     1    2    4    5    6   10   11   12   16   17   18   19   20   21   22
    23   24
 


                                Z-matrix (autoz)
                                -------- 

 Units are Angstrom for bonds and degrees for angles
 
      Type          Name      I     J     K     L     M      Value
      ----------- --------  ----- ----- ----- ----- ----- ----------
    1 Stretch                  1     2                       1.59524
    2 Stretch                  1     3                       1.59524
    3 Stretch                  2     4                       1.58574
    4 Stretch                  2     5                       1.60552
    5 Stretch                  2     6                       1.57422
    6 Stretch                  3     7                       1.58574
    7 Stretch                  3     8                       1.57422
    8 Stretch                  3     9                       1.60552
    9 Stretch                  4    10                       1.59103
   10 Stretch                  5    11                       1.59143
   11 Stretch                  6    12                       1.58267
   12 Stretch                  7    15                       1.59103
   13 Stretch                  8    14                       1.58267
   14 Stretch                  9    13                       1.59143
   15 Stretch                 10    16                       1.58086
   16 Stretch                 10    17                       1.56814
   17 Stretch                 10    18                       1.59369
   18 Stretch                 11    22                       1.58671
   19 Stretch                 11    23                       1.57077
   20 Stretch                 11    24                       1.57106
   21 Stretch                 12    19                       1.58558
   22 Stretch                 12    20                       1.58825
   23 Stretch                 12    21                       1.57648
   24 Stretch                 13    31                       1.58671
   25 Stretch                 13    32                       1.57077
   26 Stretch                 13    33                       1.57106
   27 Stretch                 14    28                       1.58558
   28 Stretch                 14    29                       1.58825
   29 Stretch                 14    30                       1.57648
   30 Stretch                 15    25                       1.58086
   31 Stretch                 15    26                       1.56814
   32 Stretch                 15    27                       1.59369
   33 Bend                     1     2     4               108.81788
   34 Bend                     1     2     5               106.38180
   35 Bend                     1     2     6               110.18641
   36 Bend                     1     3     7               108.81788
   37 Bend                     1     3     8               110.18641
   38 Bend                     1     3     9               106.38180
   39 Bend                     2     1     3               146.32369
   40 Bend                     2     4    10               153.42137
   41 Bend                     2     5    11               147.64823
   42 Bend                     2     6    12               164.59237
   43 Bend                     3     7    15               153.42137
   44 Bend                     3     8    14               164.59237
   45 Bend                     3     9    13               147.64823
   46 Bend                     4     2     5               109.42898
   47 Bend                     4     2     6               109.88971
   48 Bend                     4    10    16               111.27753
   49 Bend                     4    10    17               109.03392
   50 Bend                     4    10    18               106.94351
   51 Bend                     5     2     6               112.03401
   52 Bend                     5    11    22               107.23640
   53 Bend                     5    11    23               110.77757
   54 Bend                     5    11    24               109.77523
   55 Bend                     6    12    19               109.82768
   56 Bend                     6    12    20               110.32117
   57 Bend                     6    12    21               109.36663
   58 Bend                     7     3     8               109.88971
   59 Bend                     7     3     9               109.42898
   60 Bend                     7    15    25               111.27753
   61 Bend                     7    15    26               109.03392
   62 Bend                     7    15    27               106.94351
   63 Bend                     8     3     9               112.03401
   64 Bend                     8    14    28               109.82768
   65 Bend                     8    14    29               110.32117
   66 Bend                     8    14    30               109.36663
   67 Bend                     9    13    31               107.23640
   68 Bend                     9    13    32               110.77757
   69 Bend                     9    13    33               109.77523
   70 Bend                    16    10    17               109.22948
   71 Bend                    16    10    18               108.99209
   72 Bend                    17    10    18               111.36113
   73 Bend                    19    12    20               107.74225
   74 Bend                    19    12    21               110.72870
   75 Bend                    20    12    21               108.83541
   76 Bend                    22    11    23               110.50913
   77 Bend                    22    11    24               109.11234
   78 Bend                    23    11    24               109.39270
   79 Bend                    25    15    26               109.22948
   80 Bend                    25    15    27               108.99209
   81 Bend                    26    15    27               111.36113
   82 Bend                    28    14    29               107.74225
   83 Bend                    28    14    30               110.72870
   84 Bend                    29    14    30               108.83541
   85 Bend                    31    13    32               110.50913
   86 Bend                    31    13    33               109.11234
   87 Bend                    32    13    33               109.39270
   88 Torsion                  1     2     4    10         128.27092
   89 Torsion                  1     2     5    11        -150.52705
   90 Torsion                  1     2     6    12         125.41304
   91 Torsion                  1     3     7    15        -128.27092
   92 Torsion                  1     3     8    14        -125.41304
   93 Torsion                  1     3     9    13         150.52705
   94 Torsion                  2     1     3     7          65.29307
   95 Torsion                  2     1     3     8         -55.25321
   96 Torsion                  2     1     3     9        -176.90150
   97 Torsion                  2     4    10    16         -51.60144
   98 Torsion                  2     4    10    17          68.94508
   99 Torsion                  2     4    10    18        -170.53098
  100 Torsion                  2     5    11    22        -169.05377
  101 Torsion                  2     5    11    23          70.27837
  102 Torsion                  2     5    11    24         -50.63935
  103 Torsion                  2     6    12    19         -77.43248
  104 Torsion                  2     6    12    20         163.94943
  105 Torsion                  2     6    12    21          44.27314
  106 Torsion                  3     1     2     4         -65.29307
  107 Torsion                  3     1     2     5         176.90150
  108 Torsion                  3     1     2     6          55.25321
  109 Torsion                  3     7    15    25          51.60144
  110 Torsion                  3     7    15    26         -68.94508
  111 Torsion                  3     7    15    27         170.53098
  112 Torsion                  3     8    14    28          77.43248
  113 Torsion                  3     8    14    29        -163.94943
  114 Torsion                  3     8    14    30         -44.27314
  115 Torsion                  3     9    13    31         169.05377
  116 Torsion                  3     9    13    32         -70.27837
  117 Torsion                  3     9    13    33          50.63935
  118 Torsion                  4     2     5    11          92.07279
  119 Torsion                  4     2     6    12        -114.68695
  120 Torsion                  5     2     4    10        -115.87025
  121 Torsion                  5     2     6    12           7.18581
  122 Torsion                  6     2     4    10           7.54193
  123 Torsion                  6     2     5    11         -30.06334
  124 Torsion                  7     3     8    14         114.68695
  125 Torsion                  7     3     9    13         -92.07279
  126 Torsion                  8     3     7    15          -7.54193
  127 Torsion                  8     3     9    13          30.06334
  128 Torsion                  9     3     7    15         115.87025
  129 Torsion                  9     3     8    14          -7.18581
 
 ==============================================================================
                                internuclear distances
 ------------------------------------------------------------------------------
       center one      |      center two      | atomic units |       a.u.
 ------------------------------------------------------------------------------
    2 Si               |   1 O                |     3.01457  |     3.01457
    3 Si               |   1 O                |     3.01457  |     3.01457
    4 O                |   2 Si               |     2.99662  |     2.99662
    5 O                |   2 Si               |     3.03400  |     3.03400
    6 O                |   2 Si               |     2.97484  |     2.97484
    7 O                |   3 Si               |     2.99662  |     2.99662
    8 O                |   3 Si               |     2.97484  |     2.97484
    9 O                |   3 Si               |     3.03400  |     3.03400
   10 Si               |   4 O                |     3.00661  |     3.00661
   11 Si               |   5 O                |     3.00736  |     3.00736
   12 Si               |   6 O                |     2.99081  |     2.99081
   13 Si               |   9 O                |     3.00736  |     3.00736
   14 Si               |   8 O                |     2.99081  |     2.99081
   15 Si               |   7 O                |     3.00661  |     3.00661
   16 H                |  10 Si               |     2.98739  |     2.98739
   17 H                |  10 Si               |     2.96336  |     2.96336
   18 H                |  10 Si               |     3.01163  |     3.01163
   19 H                |  12 Si               |     2.99632  |     2.99632
   20 H                |  12 Si               |     3.00136  |     3.00136
   21 H                |  12 Si               |     2.97912  |     2.97912
   22 H                |  11 Si               |     2.99844  |     2.99844
   23 H                |  11 Si               |     2.96832  |     2.96832
   24 H                |  11 Si               |     2.96888  |     2.96888
   25 H                |  15 Si               |     2.98739  |     2.98739
   26 H                |  15 Si               |     2.96336  |     2.96336
   27 H                |  15 Si               |     3.01163  |     3.01163
   28 H                |  14 Si               |     2.99632  |     2.99632
   29 H                |  14 Si               |     3.00136  |     3.00136
   30 H                |  14 Si               |     2.97912  |     2.97912
   31 H                |  13 Si               |     2.99844  |     2.99844
   32 H                |  13 Si               |     2.96832  |     2.96832
   33 H                |  13 Si               |     2.96888  |     2.96888
 ------------------------------------------------------------------------------
                         number of included internuclear distances:         32
 ==============================================================================



 ==============================================================================
                                 internuclear angles
 ------------------------------------------------------------------------------
        center 1       |       center 2       |       center 3       |  degrees
 ------------------------------------------------------------------------------
    2 Si               |   1 O                |   3 Si               |   146.32
    1 O                |   2 Si               |   4 O                |   108.82
    1 O                |   2 Si               |   5 O                |   106.38
    1 O                |   2 Si               |   6 O                |   110.19
    4 O                |   2 Si               |   5 O                |   109.43
    4 O                |   2 Si               |   6 O                |   109.89
    5 O                |   2 Si               |   6 O                |   112.03
    1 O                |   3 Si               |   7 O                |   108.82
    1 O                |   3 Si               |   8 O                |   110.19
    1 O                |   3 Si               |   9 O                |   106.38
    7 O                |   3 Si               |   8 O                |   109.89
    7 O                |   3 Si               |   9 O                |   109.43
    8 O                |   3 Si               |   9 O                |   112.03
    2 Si               |   4 O                |  10 Si               |   153.42
    2 Si               |   5 O                |  11 Si               |   147.65
    2 Si               |   6 O                |  12 Si               |   164.59
    3 Si               |   7 O                |  15 Si               |   153.42
    3 Si               |   8 O                |  14 Si               |   164.59
    3 Si               |   9 O                |  13 Si               |   147.65
    4 O                |  10 Si               |  16 H                |   111.28
    4 O                |  10 Si               |  17 H                |   109.03
    4 O                |  10 Si               |  18 H                |   106.94
   16 H                |  10 Si               |  17 H                |   109.23
   16 H                |  10 Si               |  18 H                |   108.99
   17 H                |  10 Si               |  18 H                |   111.36
    5 O                |  11 Si               |  22 H                |   107.24
    5 O                |  11 Si               |  23 H                |   110.78
    5 O                |  11 Si               |  24 H                |   109.78
   22 H                |  11 Si               |  23 H                |   110.51
   22 H                |  11 Si               |  24 H                |   109.11
   23 H                |  11 Si               |  24 H                |   109.39
    6 O                |  12 Si               |  19 H                |   109.83
    6 O                |  12 Si               |  20 H                |   110.32
    6 O                |  12 Si               |  21 H                |   109.37
   19 H                |  12 Si               |  20 H                |   107.74
   19 H                |  12 Si               |  21 H                |   110.73
   20 H                |  12 Si               |  21 H                |   108.84
    9 O                |  13 Si               |  31 H                |   107.24
    9 O                |  13 Si               |  32 H                |   110.78
    9 O                |  13 Si               |  33 H                |   109.78
   31 H                |  13 Si               |  32 H                |   110.51
   31 H                |  13 Si               |  33 H                |   109.11
   32 H                |  13 Si               |  33 H                |   109.39
    8 O                |  14 Si               |  28 H                |   109.83
    8 O                |  14 Si               |  29 H                |   110.32
    8 O                |  14 Si               |  30 H                |   109.37
   28 H                |  14 Si               |  29 H                |   107.74
   28 H                |  14 Si               |  30 H                |   110.73
   29 H                |  14 Si               |  30 H                |   108.84
    7 O                |  15 Si               |  25 H                |   111.28
    7 O                |  15 Si               |  26 H                |   109.03
    7 O                |  15 Si               |  27 H                |   106.94
   25 H                |  15 Si               |  26 H                |   109.23
   25 H                |  15 Si               |  27 H                |   108.99
   26 H                |  15 Si               |  27 H                |   111.36
 ------------------------------------------------------------------------------
                            number of included internuclear angles:         55
 ==============================================================================



                      Basis "ao basis" -> "" (cartesian)
                      -----
  H (Hydrogen)
  ------------
            Exponent  Coefficients 
       -------------- ---------------------------------------------------------
  1 S  5.09991780E+01  0.009661
  1 S  7.48321810E+00  0.073729
  1 S  1.77746760E+00  0.295858
  1 S  5.19329500E-01  0.715905
 
  2 S  1.54110000E-01  1.000000
 
  3 P  7.50000000E-01  1.000000
 
  O (Oxygen)
  ----------
            Exponent  Coefficients 
       -------------- ---------------------------------------------------------
  1 S  5.22290220E+03 -0.001936
  1 S  7.82539940E+02 -0.014851
  1 S  1.77267430E+02 -0.073319
  1 S  4.95166880E+01 -0.245116
  1 S  1.56664400E+01 -0.480285
  1 S  5.17935990E+00 -0.335943
 
  2 S  1.06014410E+01  0.078806
  2 S  9.42317000E-01 -0.567695
 
  3 S  2.77474600E-01  1.000000
 
  4 P  3.34241260E+01  0.017560
  4 P  7.62217140E+00  0.107630
  4 P  2.23820930E+00  0.323526
  4 P  6.86730000E-01  0.483223
 
  5 P  1.93813500E-01  1.000000
 
  6 D  8.00000000E-01  1.000000
 
  Si (Silicon)
  ------------
            Exponent  Coefficients 
       -------------- ---------------------------------------------------------
  1 S  1.72685770E+04 -0.001797
  1 S  2.58665090E+03 -0.013797
  1 S  5.85636410E+02 -0.068781
  1 S  1.63773640E+02 -0.235251
  1 S  5.22670280E+01 -0.476619
  1 S  1.75416810E+01 -0.350773
 
  2 S  3.51241390E+01  0.090214
  2 S  3.56542270E+00 -0.572255
  2 S  1.25914740E+00 -0.504554
 
  3 S  1.94701440E+00 -0.150835
  3 S  2.36757300E-01  0.674559
 
  4 S  8.58966000E-02  1.000000
 
  5 P  1.59681740E+02 -0.012393
  5 P  3.72581720E+01 -0.085080
  5 P  1.14382530E+01 -0.290551
  5 P  3.82783360E+00 -0.498559
  5 P  1.26790030E+00 -0.332562
 
  6 P  5.34409500E-01 -0.226437
  6 P  1.82903100E-01 -0.555304
 
  7 P  6.17873000E-02  1.000000
 
  8 D  4.50000000E-01  1.000000
 


 Summary of "ao basis" -> "" (cartesian)
 ------------------------------------------------------------------------------
       Tag                 Description            Shells   Functions and Types
 ---------------- ------------------------------  ------  ---------------------
 H                    DZVP2 (DFT Orbital)            3        5   2s1p
 O                     DZVP (DFT Orbital)            6       15   3s2p1d
 Si                    DZVP (DFT Orbital)            8       19   4s3p1d


                      Basis "cd basis" -> "" (cartesian)
                      -----
  H (Hydrogen)
  ------------
            Exponent  Coefficients 
       -------------- ---------------------------------------------------------
  1 S  4.50000000E+01  1.000000
 
  2 S  7.50000000E+00  1.000000
 
  3 S  3.00000000E-01  1.000000
 
  4 S  1.50000000E+00  1.000000
 
  5 P  1.50000000E+00  1.000000
 
  6 D  1.50000000E+00  1.000000
 
  O (Oxygen)
  ----------
            Exponent  Coefficients 
       -------------- ---------------------------------------------------------
  1 S  2.00000000E+03  1.000000
 
  2 S  4.00000000E+02  1.000000
 
  3 S  1.00000000E+02  1.000000
 
  4 S  2.50000000E+01  1.000000
 
  5 S  7.80000000E+00  1.000000
 
  6 P  7.80000000E+00  1.000000
 
  7 S  1.56000000E+00  1.000000
 
  8 P  1.56000000E+00  1.000000
 
  9 S  3.90000000E-01  1.000000
 
 10 P  3.90000000E-01  1.000000
 
 11 D  7.80000000E+00  1.000000
 
 12 D  1.56000000E+00  1.000000
 
 13 D  3.90000000E-01  1.000000
 
  Si (Silicon)
  ------------
            Exponent  Coefficients 
       -------------- ---------------------------------------------------------
  1 S  9.83000000E+03  1.000000
 
  2 S  1.96600000E+03  1.000000
 
  3 S  4.92000000E+02  1.000000
 
  4 S  1.23000000E+02  1.000000
 
  5 S  3.07200000E+01  1.000000
 
  6 S  9.60000000E+00  1.000000
 
  7 P  9.60000000E+00  1.000000
 
  8 S  1.92000000E+00  1.000000
 
  9 P  1.92000000E+00  1.000000
 
 10 S  4.80000000E-01  1.000000
 
 11 P  4.80000000E-01  1.000000
 
 12 S  1.20000000E-01  1.000000
 
 13 P  1.20000000E-01  1.000000
 
 14 D  9.60000000E+00  1.000000
 
 15 D  1.92000000E+00  1.000000
 
 16 D  4.80000000E-01  1.000000
 
 17 D  1.20000000E-01  1.000000
 


 Summary of "cd basis" -> "" (cartesian)
 ------------------------------------------------------------------------------
       Tag                 Description            Shells   Functions and Types
 ---------------- ------------------------------  ------  ---------------------
 H                DGauss A2 DFT Coulomb Fitting      6       13   4s1p1d
 O                DGauss A1 DFT Coulomb Fitting     13       34   7s3p3d
 Si               DGauss A1 DFT Coulomb Fitting     17       45   9s4p4d


                                 NWChem DFT Module
                                 -----------------
 
 
                                      siosi3
 
 
 
            General Information
            -------------------
          SCF calculation type: DFT
          Wavefunction type:  closed shell.
          No. of atoms     :    33
          No. of electrons :   186
           Alpha electrons :    93
            Beta electrons :    93
          Charge           :     0
          Spin multiplicity:     1
          Use of symmetry is: on ; symmetry adaption is: on 
          Maximum number of iterations:  30
          AO basis - number of functions:   347
                     number of shells:   160
          A Charge density fitting basis will be used.
          CD basis - number of functions:   832
                     number of shells:   335
          Convergence on energy requested: 0.10D-05
          Convergence on density requested: 0.10D-04
          Convergence on gradient requested: 0.50D-03
 
              XC Information
              --------------
                        Slater Exchange Functional   1.00 local    
                      VWN V Correlation Functional   1.00 local    
 
             Grid Information
             ----------------
          Grid used for XC integration:  medium    
          Radial quadrature: Mura-Knowles        
          Angular quadrature: Lebedev. 
          Tag              B.-S. Rad. Rad. Pts. Rad. Cut. Ang. Pts.
          ---              ---------- --------- --------- ---------
          O                   0.60       49          16.0       434
          Si                  1.10       88          19.0       590
          H                   0.35       45          20.0       434
          Grid pruning is: on 
          Number of quadrature shells:   953
          Spatial weights used:  Erf1
 
          Convergence Information
          -----------------------
          Convergence aids based upon iterative change in 
          total energy or number of iterations. 
          Levelshifting, if invoked, occurs when the 
          HOMO/LUMO gap drops below (HL_TOL): 0.10D-01
          DIIS, if invoked, will attempt to extrapolate 
          using up to (NFOCK): 10 stored Fock matrices.

                    Damping( 0%)  Levelshifting(0.0)       DIIS
                  --------------- ------------------- ---------------
          dE  on:     N/A              N/A                start   
          dE off:     N/A              N/A               30 iters 

 
      Screening Tolerance Information
      -------------------------------
          Density screening/tol_rho: 0.10D-09
          AO Gaussian exp screening on grid/accAOfunc:  14
          CD Gaussian exp screening on grid/accCDfunc:  20
          XC Gaussian exp screening on grid/accXCfunc:  20
          Schwarz screening/accCoul: 0.10D-09
          Spatial weight screening/radius(au): 0.41D+02



     <<<<<<    Before call to DFT_SCF.    >>>>>>
     <<<<<< date:  Nov 15  time: 10:08:25 >>>>>>



     <<<<<<    Before 3c-2e initialize.   >>>>>>
     <<<<<< date:  Nov 15  time: 10:08:25 >>>>>>

  Skipping SCF linear dependence check. 
 
      Superposition of Atomic Density Guess
      -------------------------------------
 
 Sum of atomic energies:       -2842.55896089
 
      Non-variational initial energy
      ------------------------------

 Total energy =   -2848.606997
 1-e energy   =   -8548.884472
 2-e energy   =    3387.035098
 HOMO         =      -0.373271
 LUMO         =      -0.027062
 
 
      Symmetry analysis of molecular orbitals - initial
      -------------------------------------------------
 
  Numbering of irreducible representations: 
 
     1 a'          2 a"      
 
  Orbital symmetries:
 
     1 a"          2 a'          3 a"          4 a'          5 a"      
     6 a'          7 a"          8 a'          9 a'         10 a"      
    11 a'         12 a"         13 a'         14 a"         15 a'      
    16 a"         17 a'         18 a"         19 a'         20 a"      
    21 a'         22 a'         23 a"         24 a'         25 a"      
    26 a"         27 a'         28 a'         29 a"         30 a"      
    31 a'         32 a"         33 a'         34 a"         35 a'      
    36 a"         37 a'         38 a"         39 a'         40 a'      
    41 a"         42 a'         43 a"         44 a'         45 a"      
    46 a'         47 a"         48 a'         49 a"         50 a'      
    51 a'         52 a"         53 a"         54 a'         55 a"      
    56 a'         57 a'         58 a"         59 a'         60 a"      
    61 a"         62 a'         63 a"         64 a'         65 a'      
    66 a"         67 a"         68 a'         69 a'         70 a'      
    71 a"         72 a"         73 a'         74 a'         75 a"      
    76 a"         77 a"         78 a'         79 a"         80 a'      
    81 a'         82 a'         83 a'         84 a"         85 a'      
    86 a"         87 a'         88 a"         89 a'         90 a"      
    91 a"         92 a'         93 a"         94 a'         95 a"      
    96 a'         97 a'         98 a"         99 a"        100 a'      
   101 a'        102 a"        103 a'      
 
 
      3 Center 2 Electron Integral Information
      ----------------------------------------
          Maximum number of 3-center 2e- integrals is:      100180288.
            This is reduced with Schwarz screening to:       34775936.
            Incore requires a per proc buffer size of:        5549168.
                  The minimum integral buffer size is:         299520.
          Minimum dble words available (all nodes) is:         9146676
                   This is reduced (for later use) to:         7967774
                             Suggested buffer size is:         5549168

           5.549 MW buffer allocated for incore 3-center 
          2e- integral storage on stack. 
          The percent of 3c 2e- integrals held in-core is: 100.00

   Time prior to 1st pass:     25.3


     <<<<<<      Before SCF iter loop.    >>>>>>
     <<<<<< date:  Nov 15  time: 10:08:39 >>>>>>



     <<<<<<            calling 1-e int    >>>>>>
     <<<<<< date:  Nov 15  time: 10:08:39 >>>>>>



     <<<<<<    Before call to FITCD.      >>>>>>
     <<<<<< date:  Nov 15  time: 10:08:39 >>>>>>



     <<<<<<    Before call to GETVCOUL.   >>>>>>
     <<<<<< date:  Nov 15  time: 10:08:39 >>>>>>



     <<<<<<    Before call to GETVXC.     >>>>>>
     <<<<<< date:  Nov 15  time: 10:08:39 >>>>>>


 Grid_pts file          = ./siosi3_64.gridpts.0
 Record size in doubles =  12289        No. of grid_pts per rec  =   3070
 Max. records in memory =     27        Max. records in file   =  34013



     <<<<<<    End of parallel region.    >>>>>>
     <<<<<< date:  Nov 15  time: 10:08:48 >>>>>>



     <<<<<<        calling diis driver    >>>>>>
     <<<<<< date:  Nov 15  time: 10:08:48 >>>>>>



     <<<<<<         called diis driver    >>>>>>
     <<<<<< date:  Nov 15  time: 10:08:53 >>>>>>



     <<<<<<               calling diag    >>>>>>
     <<<<<< date:  Nov 15  time: 10:08:53 >>>>>>



     <<<<<<                called diag    >>>>>>
     <<<<<< date:  Nov 15  time: 10:08:54 >>>>>>



     <<<<<<              calling densm    >>>>>>
     <<<<<< date:  Nov 15  time: 10:08:55 >>>>>>



     <<<<<<               called densm    >>>>>>
     <<<<<< date:  Nov 15  time: 10:08:55 >>>>>>


           Memory utilization after 1st SCF pass: 
           Heap Space remaining (MW):        4.23             4229324
          Stack Space remaining (MW):        0.00                   0

   convergence    iter        energy       DeltaE   RMS-Dens  Diis-err    time
 ---------------- ----- ----------------- --------- --------- ---------  ------
 d= 0,ls=0.0,diis     1  -2840.3276199196 -5.15D+03  9.85D-03  6.29D+00    41.0


     <<<<<<             calling scfcvg    >>>>>>
     <<<<<< date:  Nov 15  time: 10:08:55 >>>>>>



     <<<<<<              called scfcvg    >>>>>>
     <<<<<< date:  Nov 15  time: 10:08:55 >>>>>>



     <<<<<<            calling 1-e int    >>>>>>
     <<<<<< date:  Nov 15  time: 10:08:55 >>>>>>



     <<<<<<    Before call to FITCD.      >>>>>>
     <<<<<< date:  Nov 15  time: 10:08:55 >>>>>>



     <<<<<<    Before call to GETVCOUL.   >>>>>>
     <<<<<< date:  Nov 15  time: 10:08:55 >>>>>>



     <<<<<<    Before call to GETVXC.     >>>>>>
     <<<<<< date:  Nov 15  time: 10:08:55 >>>>>>



     <<<<<<    End of parallel region.    >>>>>>
     <<<<<< date:  Nov 15  time: 10:09:00 >>>>>>



     <<<<<<        calling diis driver    >>>>>>
     <<<<<< date:  Nov 15  time: 10:09:00 >>>>>>



     <<<<<<         called diis driver    >>>>>>
     <<<<<< date:  Nov 15  time: 10:09:00 >>>>>>



     <<<<<<               calling diag    >>>>>>
     <<<<<< date:  Nov 15  time: 10:09:01 >>>>>>



     <<<<<<                called diag    >>>>>>
     <<<<<< date:  Nov 15  time: 10:09:01 >>>>>>



     <<<<<<              calling densm    >>>>>>
     <<<<<< date:  Nov 15  time: 10:09:02 >>>>>>



     <<<<<<               called densm    >>>>>>
     <<<<<< date:  Nov 15  time: 10:09:02 >>>>>>

 d= 0,ls=0.0,diis     2  -2839.6773493987  6.50D-01  6.68D-03  1.09D+01    47.8


     <<<<<<             calling scfcvg    >>>>>>
     <<<<<< date:  Nov 15  time: 10:09:02 >>>>>>



     <<<<<<              called scfcvg    >>>>>>
     <<<<<< date:  Nov 15  time: 10:09:02 >>>>>>



     <<<<<<            calling 1-e int    >>>>>>
     <<<<<< date:  Nov 15  time: 10:09:02 >>>>>>



     <<<<<<    Before call to FITCD.      >>>>>>
     <<<<<< date:  Nov 15  time: 10:09:02 >>>>>>



     <<<<<<    Before call to GETVCOUL.   >>>>>>
     <<<<<< date:  Nov 15  time: 10:09:02 >>>>>>



     <<<<<<    Before call to GETVXC.     >>>>>>
     <<<<<< date:  Nov 15  time: 10:09:02 >>>>>>



     <<<<<<    End of parallel region.    >>>>>>
     <<<<<< date:  Nov 15  time: 10:09:07 >>>>>>



     <<<<<<        calling diis driver    >>>>>>
     <<<<<< date:  Nov 15  time: 10:09:07 >>>>>>



     <<<<<<         called diis driver    >>>>>>
     <<<<<< date:  Nov 15  time: 10:09:08 >>>>>>



     <<<<<<               calling diag    >>>>>>
     <<<<<< date:  Nov 15  time: 10:09:08 >>>>>>



     <<<<<<                called diag    >>>>>>
     <<<<<< date:  Nov 15  time: 10:09:08 >>>>>>



     <<<<<<              calling densm    >>>>>>
     <<<<<< date:  Nov 15  time: 10:09:09 >>>>>>



     <<<<<<               called densm    >>>>>>
     <<<<<< date:  Nov 15  time: 10:09:09 >>>>>>

 d= 0,ls=0.0,diis     3  -2840.6223310502 -9.45D-01  2.05D-03  9.97D-01    54.6


     <<<<<<             calling scfcvg    >>>>>>
     <<<<<< date:  Nov 15  time: 10:09:09 >>>>>>



     <<<<<<              called scfcvg    >>>>>>
     <<<<<< date:  Nov 15  time: 10:09:09 >>>>>>



     <<<<<<            calling 1-e int    >>>>>>
     <<<<<< date:  Nov 15  time: 10:09:09 >>>>>>



     <<<<<<    Before call to FITCD.      >>>>>>
     <<<<<< date:  Nov 15  time: 10:09:09 >>>>>>



     <<<<<<    Before call to GETVCOUL.   >>>>>>
     <<<<<< date:  Nov 15  time: 10:09:09 >>>>>>



     <<<<<<    Before call to GETVXC.     >>>>>>
     <<<<<< date:  Nov 15  time: 10:09:09 >>>>>>



     <<<<<<    End of parallel region.    >>>>>>
     <<<<<< date:  Nov 15  time: 10:09:14 >>>>>>



     <<<<<<        calling diis driver    >>>>>>
     <<<<<< date:  Nov 15  time: 10:09:14 >>>>>>



     <<<<<<         called diis driver    >>>>>>
     <<<<<< date:  Nov 15  time: 10:09:15 >>>>>>



     <<<<<<               calling diag    >>>>>>
     <<<<<< date:  Nov 15  time: 10:09:15 >>>>>>



     <<<<<<                called diag    >>>>>>
     <<<<<< date:  Nov 15  time: 10:09:15 >>>>>>



     <<<<<<              calling densm    >>>>>>
     <<<<<< date:  Nov 15  time: 10:09:16 >>>>>>



     <<<<<<               called densm    >>>>>>
     <<<<<< date:  Nov 15  time: 10:09:16 >>>>>>

 d= 0,ls=0.0,diis     4  -2840.7145203346 -9.22D-02  6.65D-04  6.29D-02    61.5


     <<<<<<             calling scfcvg    >>>>>>
     <<<<<< date:  Nov 15  time: 10:09:16 >>>>>>



     <<<<<<              called scfcvg    >>>>>>
     <<<<<< date:  Nov 15  time: 10:09:16 >>>>>>



     <<<<<<            calling 1-e int    >>>>>>
     <<<<<< date:  Nov 15  time: 10:09:16 >>>>>>



     <<<<<<    Before call to FITCD.      >>>>>>
     <<<<<< date:  Nov 15  time: 10:09:16 >>>>>>



     <<<<<<    Before call to GETVCOUL.   >>>>>>
     <<<<<< date:  Nov 15  time: 10:09:16 >>>>>>



     <<<<<<    Before call to GETVXC.     >>>>>>
     <<<<<< date:  Nov 15  time: 10:09:16 >>>>>>



     <<<<<<    End of parallel region.    >>>>>>
     <<<<<< date:  Nov 15  time: 10:09:21 >>>>>>



     <<<<<<        calling diis driver    >>>>>>
     <<<<<< date:  Nov 15  time: 10:09:21 >>>>>>



     <<<<<<         called diis driver    >>>>>>
     <<<<<< date:  Nov 15  time: 10:09:22 >>>>>>



     <<<<<<               calling diag    >>>>>>
     <<<<<< date:  Nov 15  time: 10:09:22 >>>>>>



     <<<<<<                called diag    >>>>>>
     <<<<<< date:  Nov 15  time: 10:09:22 >>>>>>



     <<<<<<              calling densm    >>>>>>
     <<<<<< date:  Nov 15  time: 10:09:23 >>>>>>



     <<<<<<               called densm    >>>>>>
     <<<<<< date:  Nov 15  time: 10:09:23 >>>>>>

 d= 0,ls=0.0,diis     5  -2840.7223157435 -7.80D-03  2.05D-04  9.84D-03    68.3


     <<<<<<             calling scfcvg    >>>>>>
     <<<<<< date:  Nov 15  time: 10:09:23 >>>>>>



     <<<<<<              called scfcvg    >>>>>>
     <<<<<< date:  Nov 15  time: 10:09:23 >>>>>>



     <<<<<<            calling 1-e int    >>>>>>
     <<<<<< date:  Nov 15  time: 10:09:23 >>>>>>



     <<<<<<    Before call to FITCD.      >>>>>>
     <<<<<< date:  Nov 15  time: 10:09:23 >>>>>>



     <<<<<<    Before call to GETVCOUL.   >>>>>>
     <<<<<< date:  Nov 15  time: 10:09:23 >>>>>>



     <<<<<<    Before call to GETVXC.     >>>>>>
     <<<<<< date:  Nov 15  time: 10:09:23 >>>>>>



     <<<<<<    End of parallel region.    >>>>>>
     <<<<<< date:  Nov 15  time: 10:09:28 >>>>>>



     <<<<<<        calling diis driver    >>>>>>
     <<<<<< date:  Nov 15  time: 10:09:28 >>>>>>



     <<<<<<         called diis driver    >>>>>>
     <<<<<< date:  Nov 15  time: 10:09:29 >>>>>>



     <<<<<<               calling diag    >>>>>>
     <<<<<< date:  Nov 15  time: 10:09:29 >>>>>>



     <<<<<<                called diag    >>>>>>
     <<<<<< date:  Nov 15  time: 10:09:29 >>>>>>



     <<<<<<              calling densm    >>>>>>
     <<<<<< date:  Nov 15  time: 10:09:30 >>>>>>



     <<<<<<               called densm    >>>>>>
     <<<<<< date:  Nov 15  time: 10:09:30 >>>>>>

 d= 0,ls=0.0,diis     6  -2840.7232032006 -8.87D-04  7.44D-05  7.84D-04    75.1


     <<<<<<             calling scfcvg    >>>>>>
     <<<<<< date:  Nov 15  time: 10:09:30 >>>>>>



     <<<<<<              called scfcvg    >>>>>>
     <<<<<< date:  Nov 15  time: 10:09:30 >>>>>>



     <<<<<<            calling 1-e int    >>>>>>
     <<<<<< date:  Nov 15  time: 10:09:30 >>>>>>



     <<<<<<    Before call to FITCD.      >>>>>>
     <<<<<< date:  Nov 15  time: 10:09:30 >>>>>>



     <<<<<<    Before call to GETVCOUL.   >>>>>>
     <<<<<< date:  Nov 15  time: 10:09:30 >>>>>>



     <<<<<<    Before call to GETVXC.     >>>>>>
     <<<<<< date:  Nov 15  time: 10:09:30 >>>>>>



     <<<<<<    End of parallel region.    >>>>>>
     <<<<<< date:  Nov 15  time: 10:09:37 >>>>>>



     <<<<<<        calling diis driver    >>>>>>
     <<<<<< date:  Nov 15  time: 10:09:37 >>>>>>



     <<<<<<         called diis driver    >>>>>>
     <<<<<< date:  Nov 15  time: 10:09:37 >>>>>>



     <<<<<<               calling diag    >>>>>>
     <<<<<< date:  Nov 15  time: 10:09:38 >>>>>>



     <<<<<<                called diag    >>>>>>
     <<<<<< date:  Nov 15  time: 10:09:38 >>>>>>



     <<<<<<              calling densm    >>>>>>
     <<<<<< date:  Nov 15  time: 10:09:39 >>>>>>



     <<<<<<               called densm    >>>>>>
     <<<<<< date:  Nov 15  time: 10:09:39 >>>>>>

 d= 0,ls=0.0,diis     7  -2840.7237414193 -5.38D-04  1.15D-05  1.36D-05    83.7


     <<<<<<             calling scfcvg    >>>>>>
     <<<<<< date:  Nov 15  time: 10:09:39 >>>>>>



     <<<<<<              called scfcvg    >>>>>>
     <<<<<< date:  Nov 15  time: 10:09:39 >>>>>>



     <<<<<<            calling 1-e int    >>>>>>
     <<<<<< date:  Nov 15  time: 10:09:39 >>>>>>



     <<<<<<    Before call to FITCD.      >>>>>>
     <<<<<< date:  Nov 15  time: 10:09:39 >>>>>>



     <<<<<<    Before call to GETVCOUL.   >>>>>>
     <<<<<< date:  Nov 15  time: 10:09:39 >>>>>>



     <<<<<<    Before call to GETVXC.     >>>>>>
     <<<<<< date:  Nov 15  time: 10:09:39 >>>>>>



     <<<<<<    End of parallel region.    >>>>>>
     <<<<<< date:  Nov 15  time: 10:09:46 >>>>>>



     <<<<<<        calling diis driver    >>>>>>
     <<<<<< date:  Nov 15  time: 10:09:46 >>>>>>



     <<<<<<         called diis driver    >>>>>>
     <<<<<< date:  Nov 15  time: 10:09:46 >>>>>>



     <<<<<<               calling diag    >>>>>>
     <<<<<< date:  Nov 15  time: 10:09:46 >>>>>>



     <<<<<<                called diag    >>>>>>
     <<<<<< date:  Nov 15  time: 10:09:47 >>>>>>



     <<<<<<              calling densm    >>>>>>
     <<<<<< date:  Nov 15  time: 10:09:47 >>>>>>



     <<<<<<               called densm    >>>>>>
     <<<<<< date:  Nov 15  time: 10:09:47 >>>>>>

 d= 0,ls=0.0,diis     8  -2840.7237426250 -1.21D-06  4.63D-06  5.37D-06    92.4


     <<<<<<             calling scfcvg    >>>>>>
     <<<<<< date:  Nov 15  time: 10:09:48 >>>>>>



     <<<<<<              called scfcvg    >>>>>>
     <<<<<< date:  Nov 15  time: 10:09:48 >>>>>>



     <<<<<<            calling 1-e int    >>>>>>
     <<<<<< date:  Nov 15  time: 10:09:48 >>>>>>



     <<<<<<    Before call to FITCD.      >>>>>>
     <<<<<< date:  Nov 15  time: 10:09:48 >>>>>>



     <<<<<<    Before call to GETVCOUL.   >>>>>>
     <<<<<< date:  Nov 15  time: 10:09:48 >>>>>>



     <<<<<<    Before call to GETVXC.     >>>>>>
     <<<<<< date:  Nov 15  time: 10:09:48 >>>>>>



     <<<<<<    End of parallel region.    >>>>>>
     <<<<<< date:  Nov 15  time: 10:09:55 >>>>>>



     <<<<<<        calling diis driver    >>>>>>
     <<<<<< date:  Nov 15  time: 10:09:55 >>>>>>



     <<<<<<         called diis driver    >>>>>>
     <<<<<< date:  Nov 15  time: 10:09:55 >>>>>>



     <<<<<<               calling diag    >>>>>>
     <<<<<< date:  Nov 15  time: 10:09:55 >>>>>>



     <<<<<<                called diag    >>>>>>
     <<<<<< date:  Nov 15  time: 10:09:56 >>>>>>



     <<<<<<              calling densm    >>>>>>
     <<<<<< date:  Nov 15  time: 10:09:56 >>>>>>



     <<<<<<               called densm    >>>>>>
     <<<<<< date:  Nov 15  time: 10:09:56 >>>>>>

 d= 0,ls=0.0,diis     9  -2840.7237431075 -4.82D-07  2.29D-06  3.17D-07   101.0


     <<<<<<             calling scfcvg    >>>>>>
     <<<<<< date:  Nov 15  time: 10:09:56 >>>>>>



     <<<<<<              called scfcvg    >>>>>>
     <<<<<< date:  Nov 15  time: 10:09:56 >>>>>>



         Total DFT energy =  -2840.723743107488
      One electron energy =  -8561.194381142341
           Coulomb energy =   3628.154565633760
    Exchange-Corr. energy =   -220.926304372413
 Nuclear repulsion energy =   2313.242376773505

 Numeric. integr. density =    186.000127899684

     Total iterative time =     75.8s


 
                       DFT Final Molecular Orbital Analysis
                       ------------------------------------
 
 Vector   48  Occ=2.000000D+00  E=-9.739532D-01  Symmetry=a'
              MO Center= -6.9D-02, -1.3D-01, -4.4D-14, r^2= 4.8D+00
   Bfn.  Coefficient  Atom+Function         Bfn.  Coefficient  Atom+Function  
  ----- ------------  ---------------      ----- ------------  ---------------
     2      0.234920   1 O  s               115      0.192931   8 O  s         
    85      0.192931   6 O  s                 3     -0.183573   1 O  s         
    37     -0.182492   3 Si s                18     -0.182492   2 Si s         
   116     -0.157396   8 O  s                86     -0.157396   6 O  s         
   100      0.152310   7 O  s                55      0.152310   4 O  s         
 
 Vector   49  Occ=2.000000D+00  E=-9.598142D-01  Symmetry=a"
              MO Center= -5.1D-02,  1.4D-01,  4.8D-14, r^2= 6.2D+00
   Bfn.  Coefficient  Atom+Function         Bfn.  Coefficient  Atom+Function  
  ----- ------------  ---------------      ----- ------------  ---------------
    85      0.239788   6 O  s               115     -0.239788   8 O  s         
    86     -0.197935   6 O  s               116      0.197935   8 O  s         
    55      0.172617   4 O  s               100     -0.172617   7 O  s         
    70      0.153209   5 O  s               130     -0.153209   9 O  s         
    18     -0.151886   2 Si s                37      0.151886   3 Si s         
 
 Vector   50  Occ=2.000000D+00  E=-9.282916D-01  Symmetry=a'
              MO Center= -5.6D-02,  4.7D-01, -6.2D-13, r^2= 5.7D+00
   Bfn.  Coefficient  Atom+Function         Bfn.  Coefficient  Atom+Function  
  ----- ------------  ---------------      ----- ------------  ---------------
   115     -0.287057   8 O  s                85     -0.287057   6 O  s         
   116      0.199690   8 O  s                86      0.199690   6 O  s         
   100      0.174701   7 O  s                55      0.174701   4 O  s         
 
 Vector   51  Occ=2.000000D+00  E=-9.264368D-01  Symmetry=a"
              MO Center=  1.9D-01,  2.1D-01,  6.2D-13, r^2= 6.4D+00
   Bfn.  Coefficient  Atom+Function         Bfn.  Coefficient  Atom+Function  
  ----- ------------  ---------------      ----- ------------  ---------------
    85      0.252552   6 O  s               115     -0.252552   8 O  s         
    55     -0.217761   4 O  s               100      0.217761   7 O  s         
    86     -0.180710   6 O  s               116      0.180710   8 O  s         
    56      0.164221   4 O  s               101     -0.164221   7 O  s         
 
 Vector   52  Occ=2.000000D+00  E=-9.205036D-01  Symmetry=a'
              MO Center=  1.6D-01, -9.1D-01, -1.2D-12, r^2= 7.1D+00
   Bfn.  Coefficient  Atom+Function         Bfn.  Coefficient  Atom+Function  
  ----- ------------  ---------------      ----- ------------  ---------------
   130      0.262280   9 O  s                70      0.262280   5 O  s         
   100     -0.237152   7 O  s                55     -0.237152   4 O  s         
   131     -0.185028   9 O  s                71     -0.185028   5 O  s         
   101      0.161653   7 O  s                56      0.161653   4 O  s         
 
 Vector   53  Occ=2.000000D+00  E=-9.199162D-01  Symmetry=a"
              MO Center= -5.2D-02, -1.0D+00,  1.1D-12, r^2= 7.3D+00
   Bfn.  Coefficient  Atom+Function         Bfn.  Coefficient  Atom+Function  
  ----- ------------  ---------------      ----- ------------  ---------------
    70     -0.286696   5 O  s               130      0.286696   9 O  s         
    55      0.211796   4 O  s               100     -0.211796   7 O  s         
    71      0.203143   5 O  s               131     -0.203143   9 O  s         
    56     -0.152309   4 O  s               101      0.152309   7 O  s         
 
 Vector   54  Occ=2.000000D+00  E=-9.117185D-01  Symmetry=a'
              MO Center= -2.1D-01, -7.4D-01,  1.7D-14, r^2= 3.0D+00
   Bfn.  Coefficient  Atom+Function         Bfn.  Coefficient  Atom+Function  
  ----- ------------  ---------------      ----- ------------  ---------------
     2     -0.420851   1 O  s                 3      0.278600   1 O  s         
     1      0.191940   1 O  s                70      0.165116   5 O  s         
   130      0.165116   9 O  s         
 
 Vector   55  Occ=2.000000D+00  E=-6.103189D-01  Symmetry=a"
              MO Center= -6.3D-02, -1.8D-01,  9.0D-15, r^2= 6.6D+00
   Bfn.  Coefficient  Atom+Function         Bfn.  Coefficient  Atom+Function  
  ----- ------------  ---------------      ----- ------------  ---------------
    18      0.328814   2 Si s                37     -0.328814   3 Si s         
     6      0.249227   1 O  pz               88     -0.183320   6 O  py        
   118      0.183320   8 O  py               57     -0.169660   4 O  px        
   102      0.169660   7 O  px               17      0.153924   2 Si s         
    36     -0.153924   3 Si s         
 
 Vector   56  Occ=2.000000D+00  E=-5.832334D-01  Symmetry=a'
              MO Center=  1.6D-02,  2.7D-01, -7.5D-15, r^2= 7.9D+00
   Bfn.  Coefficient  Atom+Function         Bfn.  Coefficient  Atom+Function  
  ----- ------------  ---------------      ----- ------------  ---------------
    37      0.258562   3 Si s                18      0.258562   2 Si s         
   118     -0.239248   8 O  py               88     -0.239248   6 O  py        
    57     -0.196908   4 O  px              102     -0.196908   7 O  px        
   222     -0.190009  14 Si s               184     -0.190009  12 Si s         
 
 Vector   57  Occ=2.000000D+00  E=-5.434834D-01  Symmetry=a'
              MO Center=  6.9D-02,  2.7D-01, -4.1D-17, r^2= 8.9D+00
   Bfn.  Coefficient  Atom+Function         Bfn.  Coefficient  Atom+Function  
  ----- ------------  ---------------      ----- ------------  ---------------
    24     -0.237510   2 Si py               43     -0.237510   3 Si py        
    88     -0.226891   6 O  py              118     -0.226891   8 O  py        
   184     -0.213250  12 Si s               222     -0.213250  14 Si s         
   102      0.196138   7 O  px               57      0.196138   4 O  px        
   241      0.171682  15 Si s               146      0.171682  10 Si s         
 
 Vector   58  Occ=2.000000D+00  E=-5.416089D-01  Symmetry=a"
              MO Center= -3.9D-01,  6.3D-01,  6.3D-15, r^2= 8.2D+00
   Bfn.  Coefficient  Atom+Function         Bfn.  Coefficient  Atom+Function  
  ----- ------------  ---------------      ----- ------------  ---------------
    88     -0.272675   6 O  py              118      0.272675   8 O  py        
    24     -0.264366   2 Si py               43      0.264366   3 Si py        
   184     -0.256399  12 Si s               222      0.256399  14 Si s         
 
 Vector   59  Occ=2.000000D+00  E=-5.284210D-01  Symmetry=a'
              MO Center=  7.1D-03, -1.0D+00, -5.8D-15, r^2= 1.0D+01
   Bfn.  Coefficient  Atom+Function         Bfn.  Coefficient  Atom+Function  
  ----- ------------  ---------------      ----- ------------  ---------------
   203      0.240065  13 Si s               165      0.240065  11 Si s         
   134     -0.218315   9 O  pz               74      0.218315   5 O  pz        
    23     -0.209469   2 Si px               42     -0.209469   3 Si px        
    57     -0.203206   4 O  px              102     -0.203206   7 O  px        
   146     -0.186652  10 Si s               241     -0.186652  15 Si s         
 
 Vector   60  Occ=2.000000D+00  E=-5.266277D-01  Symmetry=a"
              MO Center=  7.1D-01, -7.5D-01,  8.4D-16, r^2= 9.6D+00
   Bfn.  Coefficient  Atom+Function         Bfn.  Coefficient  Atom+Function  
  ----- ------------  ---------------      ----- ------------  ---------------
   102      0.269517   7 O  px               57     -0.269517   4 O  px        
   146     -0.242823  10 Si s               241      0.242823  15 Si s         
    42      0.230393   3 Si px               23     -0.230393   2 Si px        
   165      0.188457  11 Si s               203     -0.188457  13 Si s         
   134      0.178523   9 O  pz               74      0.178523   5 O  pz        
 
 Vector   61  Occ=2.000000D+00  E=-4.883158D-01  Symmetry=a"
              MO Center= -4.5D-01, -7.6D-01, -5.1D-16, r^2= 5.7D+00
   Bfn.  Coefficient  Atom+Function         Bfn.  Coefficient  Atom+Function  
  ----- ------------  ---------------      ----- ------------  ---------------
     6     -0.497352   1 O  pz               25     -0.322443   2 Si pz        
    44     -0.322443   3 Si pz              203      0.175808  13 Si s         
   165     -0.175808  11 Si s         
 
 Vector   62  Occ=2.000000D+00  E=-4.286522D-01  Symmetry=a'
              MO Center= -6.2D-01,  8.2D-01,  2.8D-13, r^2= 1.6D+01
   Bfn.  Coefficient  Atom+Function         Bfn.  Coefficient  Atom+Function  
  ----- ------------  ---------------      ----- ------------  ---------------
   184      0.170981  12 Si s               222      0.170981  14 Si s         
 
 Vector   63  Occ=2.000000D+00  E=-4.267892D-01  Symmetry=a"
              MO Center= -4.5D-01,  7.2D-01, -2.8D-13, r^2= 1.5D+01
   Bfn.  Coefficient  Atom+Function         Bfn.  Coefficient  Atom+Function  
  ----- ------------  ---------------      ----- ------------  ---------------
   222     -0.157391  14 Si s               184      0.157391  12 Si s         
 
 Vector   64  Occ=2.000000D+00  E=-4.203802D-01  Symmetry=a'
              MO Center=  8.0D-01, -9.0D-02,  4.8D-14, r^2= 1.3D+01
   Bfn.  Coefficient  Atom+Function         Bfn.  Coefficient  Atom+Function  
  ----- ------------  ---------------      ----- ------------  ---------------
    23     -0.160572   2 Si px               42     -0.160572   3 Si px        
     4      0.154132   1 O  px        
 
 Vector   65  Occ=2.000000D+00  E=-4.166920D-01  Symmetry=a'
              MO Center= -2.1D-01,  7.2D-01,  1.0D-15, r^2= 1.5D+01
   Bfn.  Coefficient  Atom+Function         Bfn.  Coefficient  Atom+Function  
  ----- ------------  ---------------      ----- ------------  ---------------
     5     -0.160175   1 O  py        
 
 Vector   66  Occ=2.000000D+00  E=-4.135898D-01  Symmetry=a"
              MO Center=  1.1D+00,  1.2D-03, -8.2D-14, r^2= 1.3D+01
   Bfn.  Coefficient  Atom+Function         Bfn.  Coefficient  Atom+Function  
  ----- ------------  ---------------      ----- ------------  ---------------
   102      0.177043   7 O  px               57     -0.177043   4 O  px        
    42      0.173597   3 Si px               23     -0.173597   2 Si px        
   241     -0.150370  15 Si s               146      0.150370  10 Si s         
 
 Vector   67  Occ=2.000000D+00  E=-4.105306D-01  Symmetry=a"
              MO Center= -7.4D-01,  5.7D-01,  3.7D-14, r^2= 1.7D+01
   Bfn.  Coefficient  Atom+Function         Bfn.  Coefficient  Atom+Function  
  ----- ------------  ---------------      ----- ------------  ---------------
    24      0.164990   2 Si py               43     -0.164990   3 Si py        
   190      0.152807  12 Si py              228     -0.152807  14 Si py        
 
 Vector   68  Occ=2.000000D+00  E=-3.952072D-01  Symmetry=a'
              MO Center= -1.2D-01,  2.3D-01,  1.9D-14, r^2= 9.9D+00
   Bfn.  Coefficient  Atom+Function         Bfn.  Coefficient  Atom+Function  
  ----- ------------  ---------------      ----- ------------  ---------------
    89     -0.264965   6 O  pz              119      0.264965   8 O  pz        
     3     -0.154551   1 O  s                59     -0.153247   4 O  pz        
   104      0.153247   7 O  pz        
 
 Vector   69  Occ=2.000000D+00  E=-3.842074D-01  Symmetry=a'
              MO Center= -1.4D-02,  9.5D-02,  5.7D-14, r^2= 9.8D+00
   Bfn.  Coefficient  Atom+Function         Bfn.  Coefficient  Atom+Function  
  ----- ------------  ---------------      ----- ------------  ---------------
    87      0.202406   6 O  px              117      0.202406   8 O  px        
    59      0.187053   4 O  pz              104     -0.187053   7 O  pz        
    89     -0.157663   6 O  pz              119      0.157663   8 O  pz        
 
 Vector   70  Occ=2.000000D+00  E=-3.808877D-01  Symmetry=a"
              MO Center=  2.0D-01,  2.4D-01, -6.4D-13, r^2= 1.1D+01
   Bfn.  Coefficient  Atom+Function         Bfn.  Coefficient  Atom+Function  
  ----- ------------  ---------------      ----- ------------  ---------------
   117     -0.279251   8 O  px               87      0.279251   6 O  px        
   103     -0.169606   7 O  py               58      0.169606   4 O  py        
 
 Vector   71  Occ=2.000000D+00  E=-3.803861D-01  Symmetry=a'
              MO Center=  4.0D-01, -3.9D-01,  5.8D-13, r^2= 9.9D+00
   Bfn.  Coefficient  Atom+Function         Bfn.  Coefficient  Atom+Function  
  ----- ------------  ---------------      ----- ------------  ---------------
   104      0.215910   7 O  pz               59     -0.215910   4 O  pz        
    74     -0.189433   5 O  pz              134      0.189433   9 O  pz        
    87      0.152344   6 O  px              117      0.152344   8 O  px        
    58      0.151525   4 O  py              103      0.151525   7 O  py        
 
 Vector   72  Occ=2.000000D+00  E=-3.764985D-01  Symmetry=a"
              MO Center= -3.4D-01,  1.4D-01, -3.1D-14, r^2= 1.0D+01
   Bfn.  Coefficient  Atom+Function         Bfn.  Coefficient  Atom+Function  
  ----- ------------  ---------------      ----- ------------  ---------------
   119      0.280119   8 O  pz               89      0.280119   6 O  pz        
   103     -0.181678   7 O  py               58      0.181678   4 O  py        
   132      0.180696   9 O  px               72     -0.180696   5 O  px        
 
 Vector   73  Occ=2.000000D+00  E=-3.709191D-01  Symmetry=a'
              MO Center=  2.8D-01, -3.5D-01, -1.2D-13, r^2= 9.2D+00
   Bfn.  Coefficient  Atom+Function         Bfn.  Coefficient  Atom+Function  
  ----- ------------  ---------------      ----- ------------  ---------------
   103     -0.230463   7 O  py               58     -0.230463   4 O  py        
     4      0.173980   1 O  px              132      0.162479   9 O  px        
    72      0.162479   5 O  px              133     -0.150046   9 O  py        
    73     -0.150046   5 O  py        
 
 Vector   74  Occ=2.000000D+00  E=-3.692352D-01  Symmetry=a"
              MO Center=  8.7D-02, -3.9D-01,  1.2D-13, r^2= 1.0D+01
   Bfn.  Coefficient  Atom+Function         Bfn.  Coefficient  Atom+Function  
  ----- ------------  ---------------      ----- ------------  ---------------
   104      0.236818   7 O  pz               59      0.236818   4 O  pz        
     6      0.211296   1 O  pz              134      0.204063   9 O  pz        
    74      0.204063   5 O  pz               89      0.165689   6 O  pz        
   119      0.165689   8 O  pz        
 
 Vector   75  Occ=2.000000D+00  E=-3.680304D-01  Symmetry=a'
              MO Center= -5.5D-01, -1.0D+00,  4.7D-14, r^2= 8.7D+00
   Bfn.  Coefficient  Atom+Function         Bfn.  Coefficient  Atom+Function  
  ----- ------------  ---------------      ----- ------------  ---------------
     5     -0.230075   1 O  py              133     -0.222226   9 O  py        
    73     -0.222226   5 O  py                4     -0.198228   1 O  px        
    72     -0.183190   5 O  px              132     -0.183190   9 O  px        
    74     -0.162737   5 O  pz              134      0.162737   9 O  pz        
 
 Vector   76  Occ=2.000000D+00  E=-3.559616D-01  Symmetry=a"
              MO Center=  5.8D-01,  8.6D-02, -1.2D-14, r^2= 1.0D+01
   Bfn.  Coefficient  Atom+Function         Bfn.  Coefficient  Atom+Function  
  ----- ------------  ---------------      ----- ------------  ---------------
    59      0.213983   4 O  pz              104      0.213983   7 O  pz        
   119     -0.202569   8 O  pz               89     -0.202569   6 O  pz        
   103     -0.178675   7 O  py               58      0.178675   4 O  py        
 
 Vector   77  Occ=2.000000D+00  E=-3.524744D-01  Symmetry=a"
              MO Center= -2.5D-01, -9.9D-01, -1.9D-14, r^2= 1.2D+01
   Bfn.  Coefficient  Atom+Function         Bfn.  Coefficient  Atom+Function  
  ----- ------------  ---------------      ----- ------------  ---------------
   134     -0.219934   9 O  pz               74     -0.219934   5 O  pz        
    73     -0.191183   5 O  py              133      0.191183   9 O  py        
    59      0.189027   4 O  pz              104      0.189027   7 O  pz        
 
 Vector   78  Occ=2.000000D+00  E=-3.448022D-01  Symmetry=a'
              MO Center= -2.8D-02, -2.5D-01, -1.1D-15, r^2= 1.2D+01
   Bfn.  Coefficient  Atom+Function         Bfn.  Coefficient  Atom+Function  
  ----- ------------  ---------------      ----- ------------  ---------------
    58      0.218069   4 O  py              103      0.218069   7 O  py        
    72      0.187380   5 O  px              132      0.187380   9 O  px        
    87     -0.180402   6 O  px              117     -0.180402   8 O  px        
   133     -0.165271   9 O  py               73     -0.165271   5 O  py        
 
 Vector   79  Occ=2.000000D+00  E=-3.434302D-01  Symmetry=a"
              MO Center=  1.6D-02, -2.4D-01,  1.3D-15, r^2= 1.2D+01
   Bfn.  Coefficient  Atom+Function         Bfn.  Coefficient  Atom+Function  
  ----- ------------  ---------------      ----- ------------  ---------------
    58     -0.218874   4 O  py              103      0.218874   7 O  py        
   132      0.190943   9 O  px               72     -0.190943   5 O  px        
    87      0.176824   6 O  px              117     -0.176824   8 O  px        
   133     -0.152698   9 O  py               73      0.152698   5 O  py        
 
 Vector   80  Occ=2.000000D+00  E=-3.267483D-01  Symmetry=a'
              MO Center= -4.4D-01, -2.2D-01, -2.7D-15, r^2= 8.3D+00
   Bfn.  Coefficient  Atom+Function         Bfn.  Coefficient  Atom+Function  
  ----- ------------  ---------------      ----- ------------  ---------------
     5     -0.486368   1 O  py                8     -0.251513   1 O  py        
     4     -0.172659   1 O  px        
 
 Vector   81  Occ=2.000000D+00  E=-3.235781D-01  Symmetry=a'
              MO Center=  2.7D-01, -2.3D-01,  4.8D-16, r^2= 8.0D+00
   Bfn.  Coefficient  Atom+Function         Bfn.  Coefficient  Atom+Function  
  ----- ------------  ---------------      ----- ------------  ---------------
     4      0.496417   1 O  px                7      0.265750   1 O  px        
     5     -0.198560   1 O  py        
 
 Vector   82  Occ=2.000000D+00  E=-2.903007D-01  Symmetry=a'
              MO Center= -5.6D-01,  4.4D-01, -8.9D-14, r^2= 1.9D+01
   Bfn.  Coefficient  Atom+Function         Bfn.  Coefficient  Atom+Function  
  ----- ------------  ---------------      ----- ------------  ---------------
   229      0.176019  14 Si pz              191     -0.176019  12 Si pz        
   119      0.169249   8 O  pz               89     -0.169249   6 O  pz        
   329      0.150316  30 H  s               284      0.150316  21 H  s         
 
 Vector   83  Occ=2.000000D+00  E=-2.882344D-01  Symmetry=a'
              MO Center= -2.2D-01,  1.2D+00, -6.3D-12, r^2= 1.6D+01
   Bfn.  Coefficient  Atom+Function         Bfn.  Coefficient  Atom+Function  
  ----- ------------  ---------------      ----- ------------  ---------------
   227     -0.176222  14 Si px              189     -0.176222  12 Si px        
 
 Vector   84  Occ=2.000000D+00  E=-2.881670D-01  Symmetry=a"
              MO Center= -9.2D-01,  7.5D-01,  6.3D-12, r^2= 1.8D+01
   Bfn.  Coefficient  Atom+Function         Bfn.  Coefficient  Atom+Function  
  ----- ------------  ---------------      ----- ------------  ---------------
   191      0.174814  12 Si pz              229      0.174814  14 Si pz        
    89      0.159019   6 O  pz              119      0.159019   8 O  pz        
   171      0.154703  11 Si py              209     -0.154703  13 Si py        
   284     -0.151875  21 H  s               329      0.151875  30 H  s         
 
 Vector   85  Occ=2.000000D+00  E=-2.856834D-01  Symmetry=a"
              MO Center= -4.1D-01,  1.2D+00,  2.2D-13, r^2= 1.6D+01
   Bfn.  Coefficient  Atom+Function         Bfn.  Coefficient  Atom+Function  
  ----- ------------  ---------------      ----- ------------  ---------------
   189     -0.185150  12 Si px              227      0.185150  14 Si px        
   319      0.162174  28 H  s               274     -0.162174  19 H  s         
 
 Vector   86  Occ=2.000000D+00  E=-2.847603D-01  Symmetry=a'
              MO Center=  1.0D+00, -1.6D-01, -3.7D-13, r^2= 1.7D+01
   Bfn.  Coefficient  Atom+Function         Bfn.  Coefficient  Atom+Function  
  ----- ------------  ---------------      ----- ------------  ---------------
   304     -0.168073  25 H  s               259     -0.168073  16 H  s         
   152      0.155518  10 Si py              247      0.155518  15 Si py        
 
 Vector   87  Occ=2.000000D+00  E=-2.819366D-01  Symmetry=a"
              MO Center=  9.2D-01, -1.8D-01,  2.5D-13, r^2= 1.8D+01
   Bfn.  Coefficient  Atom+Function         Bfn.  Coefficient  Atom+Function  
  ----- ------------  ---------------      ----- ------------  ---------------
   259     -0.156696  16 H  s               304      0.156696  25 H  s         
   152      0.152291  10 Si py              247     -0.152291  15 Si py        
 
 Vector   88  Occ=2.000000D+00  E=-2.760391D-01  Symmetry=a"
              MO Center=  5.3D-01,  2.9D-01, -4.8D-16, r^2= 1.7D+01
   Bfn.  Coefficient  Atom+Function         Bfn.  Coefficient  Atom+Function  
  ----- ------------  ---------------      ----- ------------  ---------------
    89      0.169192   6 O  pz              119      0.169192   8 O  pz        
 
 Vector   89  Occ=2.000000D+00  E=-2.725421D-01  Symmetry=a"
              MO Center=  1.4D-01, -9.5D-01,  8.0D-15, r^2= 1.9D+01
   Bfn.  Coefficient  Atom+Function         Bfn.  Coefficient  Atom+Function  
  ----- ------------  ---------------      ----- ------------  ---------------
   104      0.167848   7 O  pz               59      0.167848   4 O  pz        
   299      0.153472  24 H  s               344     -0.153472  33 H  s         
 
 Vector   90  Occ=2.000000D+00  E=-2.720806D-01  Symmetry=a'
              MO Center=  2.4D-01,  3.9D-01,  1.4D-14, r^2= 1.4D+01
   Bfn.  Coefficient  Atom+Function         Bfn.  Coefficient  Atom+Function  
  ----- ------------  ---------------      ----- ------------  ---------------
     5     -0.207735   1 O  py               89     -0.193373   6 O  pz        
   119      0.193373   8 O  pz              103      0.168149   7 O  py        
    58      0.168149   4 O  py        
 
 Vector   91  Occ=2.000000D+00  E=-2.706003D-01  Symmetry=a'
              MO Center= -7.2D-01, -3.0D-01,  1.3D-14, r^2= 1.7D+01
   Bfn.  Coefficient  Atom+Function         Bfn.  Coefficient  Atom+Function  
  ----- ------------  ---------------      ----- ------------  ---------------
    73      0.217040   5 O  py              133      0.217040   9 O  py        
 
 Vector   92  Occ=2.000000D+00  E=-2.684059D-01  Symmetry=a"
              MO Center= -1.0D-01,  2.3D-01, -2.2D-13, r^2= 1.6D+01
   Bfn.  Coefficient  Atom+Function         Bfn.  Coefficient  Atom+Function  
  ----- ------------  ---------------      ----- ------------  ---------------
   103      0.184161   7 O  py               58     -0.184161   4 O  py        
   117     -0.161690   8 O  px               87      0.161690   6 O  px        
   132      0.155520   9 O  px               72     -0.155520   5 O  px        
 
 Vector   93  Occ=2.000000D+00  E=-2.674606D-01  Symmetry=a'
              MO Center=  2.2D-01, -7.1D-01,  2.4D-13, r^2= 1.6D+01
   Bfn.  Coefficient  Atom+Function         Bfn.  Coefficient  Atom+Function  
  ----- ------------  ---------------      ----- ------------  ---------------
    59     -0.213516   4 O  pz              104      0.213516   7 O  pz        
    72      0.213325   5 O  px              132      0.213325   9 O  px        
     4     -0.209165   1 O  px        
 
 Vector   94  Occ=0.000000D+00  E=-5.203805D-02  Symmetry=a'
              MO Center=  3.5D-03,  6.5D-01, -5.5D-14, r^2= 1.7D+01
   Bfn.  Coefficient  Atom+Function         Bfn.  Coefficient  Atom+Function  
  ----- ------------  ---------------      ----- ------------  ---------------
   116      0.322500   8 O  s                86      0.322500   6 O  s         
   231      0.311633  14 Si py              193      0.311633  12 Si py        
   249      0.300829  15 Si px              154      0.300829  10 Si px        
    56      0.253957   4 O  s               101      0.253957   7 O  s         
    71      0.225358   5 O  s               131      0.225358   9 O  s         
 
 Vector   95  Occ=0.000000D+00  E=-3.553104D-02  Symmetry=a"
              MO Center= -3.8D-01,  3.5D-01,  5.3D-14, r^2= 2.0D+01
   Bfn.  Coefficient  Atom+Function         Bfn.  Coefficient  Atom+Function  
  ----- ------------  ---------------      ----- ------------  ---------------
    19      0.430863   2 Si s                38     -0.430863   3 Si s         
   193      0.386414  12 Si py              231     -0.386414  14 Si py        
   154      0.318311  10 Si px              249     -0.318311  15 Si px        
   175      0.299352  11 Si pz              213      0.299352  13 Si pz        
   116     -0.257135   8 O  s                86      0.257135   6 O  s         
 
 Vector   96  Occ=0.000000D+00  E=-1.833317D-02  Symmetry=a'
              MO Center=  1.3D+00,  1.1D+00,  5.4D-14, r^2= 1.7D+01
   Bfn.  Coefficient  Atom+Function         Bfn.  Coefficient  Atom+Function  
  ----- ------------  ---------------      ----- ------------  ---------------
   154      0.441443  10 Si px              249      0.441443  15 Si px        
   193     -0.365342  12 Si py              231     -0.365342  14 Si py        
    56      0.338375   4 O  s               101      0.338375   7 O  s         
   156      0.301238  10 Si pz              251     -0.301238  15 Si pz        
   194     -0.282378  12 Si pz              232      0.282378  14 Si pz        
 
 Vector   97  Occ=0.000000D+00  E=-1.213488D-02  Symmetry=a'
              MO Center= -1.2D+00, -7.5D-01,  1.4D-14, r^2= 2.3D+01
   Bfn.  Coefficient  Atom+Function         Bfn.  Coefficient  Atom+Function  
  ----- ------------  ---------------      ----- ------------  ---------------
   175     -0.560392  11 Si pz              213      0.560392  13 Si pz        
    71     -0.364237   5 O  s               131     -0.364237   9 O  s         
   173      0.313009  11 Si px              211      0.313009  13 Si px        
   232     -0.243150  14 Si pz              194      0.243150  12 Si pz        
   230     -0.228522  14 Si px              192     -0.228522  12 Si px        
 
 Vector   98  Occ=0.000000D+00  E=-8.119288D-03  Symmetry=a"
              MO Center=  2.1D-01, -5.5D-01,  6.6D-15, r^2= 2.5D+01
   Bfn.  Coefficient  Atom+Function         Bfn.  Coefficient  Atom+Function  
  ----- ------------  ---------------      ----- ------------  ---------------
   154     -0.536005  10 Si px              249      0.536005  15 Si px        
   175      0.500992  11 Si pz              213      0.500992  13 Si pz        
    71      0.308099   5 O  s               131     -0.308099   9 O  s         
   173     -0.302580  11 Si px              211      0.302580  13 Si px        
   230     -0.292202  14 Si px              192      0.292202  12 Si px        
 
 Vector   99  Occ=0.000000D+00  E=-6.340208D-03  Symmetry=a"
              MO Center=  2.4D-01,  1.3D+00, -4.9D-14, r^2= 2.1D+01
   Bfn.  Coefficient  Atom+Function         Bfn.  Coefficient  Atom+Function  
  ----- ------------  ---------------      ----- ------------  ---------------
   231      0.554955  14 Si py              193     -0.554955  12 Si py        
   249     -0.428391  15 Si px              154      0.428391  10 Si px        
    86     -0.330768   6 O  s               116      0.330768   8 O  s         
   101     -0.306819   7 O  s                56      0.306819   4 O  s         
   230     -0.252135  14 Si px              192      0.252135  12 Si px        
 
 Vector  100  Occ=0.000000D+00  E= 1.596057D-02  Symmetry=a'
              MO Center= -6.8D-01,  2.1D+00, -9.8D-15, r^2= 1.4D+01
   Bfn.  Coefficient  Atom+Function         Bfn.  Coefficient  Atom+Function  
  ----- ------------  ---------------      ----- ------------  ---------------
   284     -0.684213  21 H  s               329     -0.684213  30 H  s         
   194      0.489605  12 Si pz              232     -0.489605  14 Si pz        
   223      0.429911  14 Si s               185      0.429911  12 Si s         
[...]
   166     -0.409687  11 Si s               204     -0.409687  13 Si s         
 
 Vector  147  Occ=0.000000D+00  E= 2.625952D-01  Symmetry=a'
              MO Center=  4.9D-02,  1.2D-01,  1.9D-14, r^2= 1.3D+01
   Bfn.  Coefficient  Atom+Function         Bfn.  Coefficient  Atom+Function  
  ----- ------------  ---------------      ----- ------------  ---------------
   223     -1.066391  14 Si s               185     -1.066391  12 Si s         
   147      0.620356  10 Si s               242      0.620356  15 Si s         
    43     -0.491079   3 Si py               24     -0.491079   2 Si py        
   222      0.490630  14 Si s               184      0.490630  12 Si s         
    19      0.485558   2 Si s                38      0.485558   3 Si s         
 
 Vector  148  Occ=0.000000D+00  E= 2.726526D-01  Symmetry=a"
              MO Center= -9.8D-01, -3.6D-02, -3.4D-14, r^2= 1.1D+01
   Bfn.  Coefficient  Atom+Function         Bfn.  Coefficient  Atom+Function  
  ----- ------------  ---------------      ----- ------------  ---------------
    26     -1.177455   2 Si px               45      1.177455   3 Si px        
    28     -0.685336   2 Si pz               47     -0.685336   3 Si pz        
    38     -0.676690   3 Si s                19      0.676690   2 Si s         
    42      0.660126   3 Si px               23     -0.660126   2 Si px        
   204     -0.525801  13 Si s               166      0.525801  11 Si s         
 
 Vector  149  Occ=0.000000D+00  E= 2.925381D-01  Symmetry=a'
              MO Center= -2.3D-02, -5.2D-01,  9.9D-14, r^2= 1.5D+01
   Bfn.  Coefficient  Atom+Function         Bfn.  Coefficient  Atom+Function  
  ----- ------------  ---------------      ----- ------------  ---------------
    38      1.040837   3 Si s                19      1.040837   2 Si s         
   242     -0.927485  15 Si s               147     -0.927485  10 Si s         
    28      0.875902   2 Si pz               47     -0.875902   3 Si pz        
   166     -0.714160  11 Si s               204     -0.714160  13 Si s         
    25      0.579836   2 Si pz               44     -0.579836   3 Si pz        
 
 Vector  150  Occ=0.000000D+00  E= 2.962035D-01  Symmetry=a"
              MO Center=  1.0D+00,  4.0D-01,  7.7D-14, r^2= 1.2D+01
   Bfn.  Coefficient  Atom+Function         Bfn.  Coefficient  Atom+Function  
  ----- ------------  ---------------      ----- ------------  ---------------
    19     -1.516804   2 Si s                38      1.516804   3 Si s         
    47      1.028277   3 Si pz               28      1.028277   2 Si pz        
    45      0.928028   3 Si px               26     -0.928028   2 Si px        
    27     -0.721315   2 Si py               46      0.721315   3 Si py        
   151      0.563803  10 Si px              246     -0.563803  15 Si px        
 
 Vector  151  Occ=0.000000D+00  E= 3.093123D-01  Symmetry=a"
              MO Center= -9.9D-02, -4.1D-01, -8.1D-14, r^2= 1.5D+01
   Bfn.  Coefficient  Atom+Function         Bfn.  Coefficient  Atom+Function  
  ----- ------------  ---------------      ----- ------------  ---------------
   204     -1.645285  13 Si s               166      1.645285  11 Si s         
    47     -1.628924   3 Si pz               28     -1.628924   2 Si pz        
   242     -0.995343  15 Si s               147      0.995343  10 Si s         
   223     -0.992411  14 Si s               185      0.992411  12 Si s         
    46      0.627339   3 Si py               27     -0.627339   2 Si py        
 
 Vector  152  Occ=0.000000D+00  E= 3.266845D-01  Symmetry=a'
              MO Center=  6.3D-01, -2.8D-01,  2.7D-15, r^2= 1.5D+01
   Bfn.  Coefficient  Atom+Function         Bfn.  Coefficient  Atom+Function  
  ----- ------------  ---------------      ----- ------------  ---------------
   147      1.858436  10 Si s               242      1.858436  15 Si s         
   166     -1.386703  11 Si s               204     -1.386703  13 Si s         
    45     -0.849316   3 Si px               26     -0.849316   2 Si px        
   146     -0.847232  10 Si s               241     -0.847232  15 Si s         
   223     -0.665646  14 Si s               185     -0.665646  12 Si s         
 
 Vector  153  Occ=0.000000D+00  E= 3.647173D-01  Symmetry=a'
              MO Center=  1.1D-01,  7.9D-01, -9.3D-15, r^2= 1.1D+01
   Bfn.  Coefficient  Atom+Function         Bfn.  Coefficient  Atom+Function  
  ----- ------------  ---------------      ----- ------------  ---------------
    19      1.818839   2 Si s                38      1.818839   3 Si s         
   223     -1.776555  14 Si s               185     -1.776555  12 Si s         
    18     -0.754676   2 Si s                37     -0.754676   3 Si s         
   222      0.640526  14 Si s               184      0.640526  12 Si s         
   147     -0.576352  10 Si s               242     -0.576352  15 Si s         
 
 Vector  154  Occ=0.000000D+00  E= 3.721569D-01  Symmetry=a'
              MO Center= -4.7D-01, -9.1D-01,  1.8D-14, r^2= 1.6D+01
   Bfn.  Coefficient  Atom+Function         Bfn.  Coefficient  Atom+Function  
  ----- ------------  ---------------      ----- ------------  ---------------
   166      2.457771  11 Si s               204      2.457771  13 Si s         
    38     -1.945165   3 Si s                19     -1.945165   2 Si s         
   242      1.077710  15 Si s               147      1.077710  10 Si s         
   165     -0.960728  11 Si s               203     -0.960728  13 Si s         
   185     -0.781607  12 Si s               223     -0.781607  14 Si s         
 
 Vector  155  Occ=0.000000D+00  E= 3.755632D-01  Symmetry=a"
              MO Center= -3.0D-01, -3.4D-01, -5.0D-15, r^2= 1.6D+01
   Bfn.  Coefficient  Atom+Function         Bfn.  Coefficient  Atom+Function  
  ----- ------------  ---------------      ----- ------------  ---------------
   204      2.380598  13 Si s               166     -2.380598  11 Si s         
   147      1.472744  10 Si s               242     -1.472744  15 Si s         
    45      1.358918   3 Si px               26     -1.358918   2 Si px        
   203     -0.922834  13 Si s               165      0.922834  11 Si s         
    47      0.752401   3 Si pz               28      0.752401   2 Si pz        
 
 Vector  156  Occ=0.000000D+00  E= 4.207140D-01  Symmetry=a"
              MO Center=  3.2D-01,  4.3D-01,  3.9D-14, r^2= 1.4D+01
   Bfn.  Coefficient  Atom+Function         Bfn.  Coefficient  Atom+Function  
  ----- ------------  ---------------      ----- ------------  ---------------
    19     -2.216798   2 Si s                38      2.216798   3 Si s         
   185      2.201897  12 Si s               223     -2.201897  14 Si s         
   166     -1.073805  11 Si s               204      1.073805  13 Si s         
   147      0.964775  10 Si s               242     -0.964775  15 Si s         
    27     -0.820935   2 Si py               46      0.820935   3 Si py        
 
 Vector  157  Occ=0.000000D+00  E= 4.390214D-01  Symmetry=a'
              MO Center= -1.3D-01, -4.3D-01, -4.6D-14, r^2= 1.1D+01
   Bfn.  Coefficient  Atom+Function         Bfn.  Coefficient  Atom+Function  
  ----- ------------  ---------------      ----- ------------  ---------------
   218     -0.361140  13 Si dyz             180      0.361140  11 Si dyz       
   136     -0.351579   9 O  py               76     -0.351579   5 O  py        
   107     -0.285934   7 O  pz               62      0.285934   4 O  pz        
   133      0.277593   9 O  py               73      0.277593   5 O  py        
   104      0.276489   7 O  pz               59     -0.276489   4 O  pz        
 
 Vector  158  Occ=0.000000D+00  E= 4.429865D-01  Symmetry=a"
              MO Center=  6.0D-01, -5.2D-01,  1.3D-13, r^2= 1.5D+01
   Bfn.  Coefficient  Atom+Function         Bfn.  Coefficient  Atom+Function  
  ----- ------------  ---------------      ----- ------------  ---------------
   242      1.711933  15 Si s               147     -1.711933  10 Si s         
    38     -1.252082   3 Si s                19      1.252082   2 Si s         
   223     -0.901555  14 Si s               185      0.901555  12 Si s         
    45     -0.675358   3 Si px               26      0.675358   2 Si px        
   241     -0.584421  15 Si s               146      0.584421  10 Si s         
 
 Vector  159  Occ=0.000000D+00  E= 4.460882D-01  Symmetry=a'
              MO Center=  9.1D-01, -1.7D-01, -1.4D-13, r^2= 8.9D+00
   Bfn.  Coefficient  Atom+Function         Bfn.  Coefficient  Atom+Function  
  ----- ------------  ---------------      ----- ------------  ---------------
   256      0.456017  15 Si dyz             161     -0.456017  10 Si dyz       
     8     -0.328269   1 O  py              106      0.321470   7 O  py        
    61      0.321470   4 O  py                5      0.313769   1 O  py        
   103     -0.311956   7 O  py               58     -0.311956   4 O  py        
   185      0.281168  12 Si s               223      0.281168  14 Si s         
 
 Vector  160  Occ=0.000000D+00  E= 4.482175D-01  Symmetry=a"
              MO Center= -1.5D-01,  5.7D-01,  6.3D-15, r^2= 1.3D+01
   Bfn.  Coefficient  Atom+Function         Bfn.  Coefficient  Atom+Function  
  ----- ------------  ---------------      ----- ------------  ---------------
    19      1.413661   2 Si s                38     -1.413661   3 Si s         
   147     -0.982686  10 Si s               242      0.982686  15 Si s         
   166     -0.593175  11 Si s               204      0.593175  13 Si s         
   199      0.402857  12 Si dyz             237      0.402857  14 Si dyz       
   146      0.397239  10 Si s               241     -0.397239  15 Si s         
 
 Vector  161  Occ=0.000000D+00  E= 4.532868D-01  Symmetry=a'
              MO Center=  3.7D-03, -5.9D-01, -1.4D-14, r^2= 1.3D+01
   Bfn.  Coefficient  Atom+Function         Bfn.  Coefficient  Atom+Function  
  ----- ------------  ---------------      ----- ------------  ---------------
   166     -0.572172  11 Si s               204     -0.572172  13 Si s         
   147      0.479318  10 Si s               242      0.479318  15 Si s         
   137     -0.386870   9 O  pz               77      0.386870   5 O  pz        
   218     -0.340562  13 Si dyz             180      0.340562  11 Si dyz       
    60     -0.323033   4 O  px              105     -0.323033   7 O  px        
 
 Vector  162  Occ=0.000000D+00  E= 4.535698D-01  Symmetry=a"
              MO Center= -1.5D-02, -6.5D-01,  2.2D-15, r^2= 1.2D+01
   Bfn.  Coefficient  Atom+Function         Bfn.  Coefficient  Atom+Function  
  ----- ------------  ---------------      ----- ------------  ---------------
    38      0.823997   3 Si s                19     -0.823997   2 Si s         
   204     -0.798340  13 Si s               166      0.798340  11 Si s         
     9      0.780513   1 O  pz              147     -0.589950  10 Si s         
   242      0.589950  15 Si s               223     -0.448186  14 Si s         
   185      0.448186  12 Si s               178     -0.378674  11 Si dxz       
 
 Vector  163  Occ=0.000000D+00  E= 4.565901D-01  Symmetry=a'
              MO Center= -5.1D-01,  1.1D+00, -6.1D-14, r^2= 1.2D+01
   Bfn.  Coefficient  Atom+Function         Bfn.  Coefficient  Atom+Function  
  ----- ------------  ---------------      ----- ------------  ---------------
   237     -0.490463  14 Si dyz             199      0.490463  12 Si dyz       
   204      0.444839  13 Si s               166      0.444839  11 Si s         
   223     -0.428600  14 Si s               185     -0.428600  12 Si s         
   121      0.345182   8 O  py               91      0.345182   6 O  py        
   196      0.325724  12 Si dxy             234      0.325724  14 Si dxy       
 
 Vector  164  Occ=0.000000D+00  E= 4.615457D-01  Symmetry=a"
              MO Center= -5.7D-01,  2.0D-01,  1.8D-13, r^2= 1.5D+01
   Bfn.  Coefficient  Atom+Function         Bfn.  Coefficient  Atom+Function  
  ----- ------------  ---------------      ----- ------------  ---------------
   166      1.148756  11 Si s               204     -1.148756  13 Si s         
   147      0.976776  10 Si s               242     -0.976776  15 Si s         
    19     -0.908561   2 Si s                38      0.908561   3 Si s         
   223      0.875466  14 Si s               185     -0.875466  12 Si s         
    46     -0.470600   3 Si py               27      0.470600   2 Si py        
 
 Vector  165  Occ=0.000000D+00  E= 4.650308D-01  Symmetry=a'
              MO Center= -9.2D-01,  7.5D-01, -9.8D-14, r^2= 1.3D+01
   Bfn.  Coefficient  Atom+Function         Bfn.  Coefficient  Atom+Function  
  ----- ------------  ---------------      ----- ------------  ---------------
   235      0.438295  14 Si dxz             197     -0.438295  12 Si dxz       
   218      0.338937  13 Si dyz             180     -0.338937  11 Si dyz       
   234     -0.330738  14 Si dxy             196     -0.330738  12 Si dxy       
   237      0.320338  14 Si dyz             199     -0.320338  12 Si dyz       
   216     -0.266894  13 Si dxz             178      0.266894  11 Si dxz       
 
 Vector  166  Occ=0.000000D+00  E= 4.845415D-01  Symmetry=a"
              MO Center=  7.2D-03,  3.7D-01,  2.2D-15, r^2= 1.3D+01
   Bfn.  Coefficient  Atom+Function         Bfn.  Coefficient  Atom+Function  
  ----- ------------  ---------------      ----- ------------  ---------------
   242     -1.215108  15 Si s               147      1.215108  10 Si s         
    38      1.155293   3 Si s                19     -1.155293   2 Si s         
   204     -0.998997  13 Si s               166      0.998997  11 Si s         
    27      0.609526   2 Si py               46     -0.609526   3 Si py        
   185     -0.491289  12 Si s               223      0.491289  14 Si s         
 
 Vector  167  Occ=0.000000D+00  E= 4.894614D-01  Symmetry=a'
              MO Center= -5.6D-02, -2.1D-01, -2.8D-13, r^2= 1.4D+01
   Bfn.  Coefficient  Atom+Function         Bfn.  Coefficient  Atom+Function  
  ----- ------------  ---------------      ----- ------------  ---------------
    38     -0.879430   3 Si s                19     -0.879430   2 Si s         
   223      0.644870  14 Si s               185      0.644870  12 Si s         
   218      0.437149  13 Si dyz             180     -0.437149  11 Si dyz       
    46     -0.400637   3 Si py               27     -0.400637   2 Si py        
   121     -0.373574   8 O  py               91     -0.373574   6 O  py        
 
 Vector  168  Occ=0.000000D+00  E= 5.023023D-01  Symmetry=a"
              MO Center= -1.5D-01,  2.0D-01,  2.1D-13, r^2= 9.5D+00
   Bfn.  Coefficient  Atom+Function         Bfn.  Coefficient  Atom+Function  
  ----- ------------  ---------------      ----- ------------  ---------------
    19     -1.873788   2 Si s                38      1.873788   3 Si s         
   185      0.981566  12 Si s               223     -0.981566  14 Si s         
    47      0.506667   3 Si pz               28      0.506667   2 Si pz        
    31      0.438383   2 Si dxz              50      0.438383   3 Si dxz       
     9      0.429886   1 O  pz               92     -0.355697   6 O  pz        
 

 center of mass
 --------------
 x =  -0.00154070 y =  -0.03892626 z =   0.00000000

 moments of inertia (a.u.)
 ------------------
       10211.947106327352          -0.000000000220           0.000000000000
          -0.000000000220       10986.893236464941           0.000000000000
           0.000000000000           0.000000000000        5835.541935203853
 
     Multipole analysis of the density
     ---------------------------------
 
     L   x y z        total         alpha         beta         nuclear
     -   - - -        -----         -----         ----         -------
     0   0 0 0      0.000000    -93.000000    -93.000000    186.000000
 
     1   1 0 0     -0.011326     -0.005663     -0.005663      0.000000
     1   0 1 0      0.630318      0.315159      0.315159      0.000000
     1   0 0 1      0.000000      0.000000      0.000000      0.000000
 
     2   2 0 0   -110.630431   -982.833821   -982.833821   1855.037211
     2   1 1 0     -0.099146      0.303832      0.303832     -0.706811
     2   1 0 1      0.000000      0.000000      0.000000      0.000000
     2   0 2 0   -113.858937   -765.244866   -765.244866   1416.630794
     2   0 1 1      0.000000      0.000000      0.000000      0.000000
     2   0 0 2   -108.420766  -2151.109305  -2151.109305   4193.797844
 

 Task  times  cpu:       99.0s     wall:      101.7s
 
 
                                NWChem Input Module
                                -------------------
 
 
 Summary of allocated global arrays
-----------------------------------
  No active global arrays



                         GA Statistics for process    0
                         ------------------------------

       create   destroy   get      put      acc     scatter   gather  read&inc
calls:  183      183     8.23e+04 5.68e+04 7.15e+04    0        0        0     
bytes total:             2.13e+08 3.86e+07 1.48e+08 0.00e+00 0.00e+00 0.00e+00
bytes remote:            1.49e+08 1.28e+07 1.06e+08 0.00e+00 0.00e+00 0.00e+00
Max memory consumed for GA by this process: 10079400 bytes
 
MA_summarize_allocated_blocks: starting scan ...
MA_summarize_allocated_blocks: scan completed: 0 heap blocks, 0 stack blocks
MA usage statistics:

	allocation statistics:
					      heap	     stack
					      ----	     -----
	current number of blocks	         0	         0
	maximum number of blocks	        27	        47
	current total bytes		         0	         0
	maximum total bytes		   2865328	  60537256
	maximum total K-bytes		      2866	     60538
	maximum total M-bytes		         3	        61



                                  ACKNOWLEDGEMENT
                                  ---------------

            Please use the following acknowledgement where appropriate 
            for results obtained with NWChem:

            High Performance Computational Chemistry Group, "NWChem, A
            Computational Chemistry Package for Parallel Computers, 
            Version 4.0.1" (2001), Pacific Northwest National Laboratory,
            Richland, Washington 99352-0999, USA.


                                     CITATION
                                     --------

            Please use the following citation when publishing results
            obtained with NWChem:

            R. J. Harrison, J. A. Nichols, T. P. Straatsma, M. Dupuis, E. J. Bylaska,
            G. I. Fann, T. L. Windus, E. Apra, J. Anchell, D. Bernholdt, P. Borowski,
            T. Clark, D. Clerc, H. Dachsel, B. de Jong, M. Deegan, K. Dyall, D. Elwood,
            H. Fruchtl, E. Glendenning, M. Gutowski, A. Hess, J. Jaffe, B. Johnson, J. Ju,
            R. Kendall, R. Kobayashi, R, Kutteh, Z. Lin, R. Littlefield, X. Long, B. Meng,
            J. Nieplocha, S. Niu, M. Rosing, G. Sandrone, M. Stave, H. Taylor, G. Thomas,
            J. van Lenthe, K. Wolinski, A. Wong, and Z. Zhang,
            NWChem, A Computational Chemistry Package for Parallel Computers, 
            Version 4.0.1" (2001),
                      Pacific Northwest National Laboratory,
                      Richland, Washington 99352-0999, USA.


                                    REFERENCES
                                    ----------

            Where appropriate, please cite the following reference(s) 
            when publishing results obtained with NWChem:


     1. D. E. Bernholdt, E. Apra, H. A. Fruchtl, M.F. Guest, R. J. Harrison, 
        R. A. Kendall, R. A. Kutteh, X. Long, J. B. Nicholas, J. A. Nichols, 
        H. L. Taylor, A. T. Wong, G. I. Fann, R. J. Littlefield and J. Nieplocha,
        "Parallel Computational Chemistry Made Easier: The Development of NWChem,"
        Int. J. Quantum Chem. Symposium  29, 475-483 (1995).



 Total times  cpu:      104.3s     wall:      108.3s
