 argument  1 = dft_mpwb1khf.nw



============================== echo of input deck ==============================
echo
title "test4 MPWB1K/6-31+G* HF optimization "
start  dft_mpwb1khf

geometry
F        0.000000    0.000000    0.108786
H        0.000000    0.000000   -0.870284
end

basis
* library 6-31+G*
end

dft
xc  MPWB1K
mult 1
grid fine
end

task dft  optimize


================================================================================


                                         
                                         


              Northwest Computational Chemistry Package (NWChem) 6.0
              ------------------------------------------------------


                    Environmental Molecular Sciences Laboratory
                       Pacific Northwest National Laboratory
                                Richland, WA 99352

                              Copyright (c) 1994-2010
                       Pacific Northwest National Laboratory
                            Battelle Memorial Institute

             NWChem is an open-source computational chemistry package
                        distributed under the terms of the
                      Educational Community License (ECL) 2.0
             A copy of the license is included with this distribution
                              in the LICENSE.TXT file

                                  ACKNOWLEDGMENT
                                  --------------

            This software and its documentation were developed at the
            EMSL at Pacific Northwest National Laboratory, a multiprogram
            national laboratory, operated for the U.S. Department of Energy
            by Battelle under Contract Number DE-AC05-76RL01830. Support
            for this work was provided by the Department of Energy Office
            of Biological and Environmental Research, Office of Basic
            Energy Sciences, and the Office of Advanced Scientific Computing.


           Job information
           ---------------

    hostname      = arcen
    program       = /home/d3y133/nwchem-releases/nwchem-merge/nwchem-dev/QA/../bin/LINUX64/nwchem
    date          = Mon Oct 25 15:28:06 2010

    compiled      = Mon_Oct_25_14:31:37_2010
    source        = /home/d3y133/nwchem-releases/nwchem-merge/nwchem-dev
    nwchem branch = Development
    input         = dft_mpwb1khf.nw
    prefix        = dft_mpwb1khf.
    data base     = /home/d3y133/nwchem-releases/nwchem-merge/nwchem-dev/QA/scratchdir/dft_mpwb1khf.db
    status        = startup
    nproc         =        4
    time left     =     -1s



           Memory information
           ------------------

    heap     =   16384001 doubles =    125.0 Mbytes
    stack    =   16384001 doubles =    125.0 Mbytes
    global   =   32768000 doubles =    250.0 Mbytes (distinct from heap & stack)
    total    =   65536002 doubles =    500.0 Mbytes
    verify   = yes
    hardfail = no 


           Directory information
           ---------------------

  0 permanent = /home/d3y133/nwchem-releases/nwchem-merge/nwchem-dev/QA/scratchdir
  0 scratch   = /home/d3y133/nwchem-releases/nwchem-merge/nwchem-dev/QA/scratchdir




                                NWChem Input Module
                                -------------------


                       test4 MPWB1K/6-31+G* HF optimization
                       ------------------------------------

 Scaling coordinates for geometry "geometry" by  1.889725989
 (inverse scale =  0.529177249)

 ORDER OF PRIMARY AXIS IS BEING SET TO 4
 C4V symmetry detected

          ------
          auto-z
          ------


                             Geometry "geometry" -> ""
                             -------------------------

 Output coordinates in angstroms (scale by  1.889725989 to convert to a.u.)

  No.       Tag          Charge          X              Y              Z
 ---- ---------------- ---------- -------------- -------------- --------------
    1 F                    9.0000     0.00000000     0.00000000     0.09790700
    2 H                    1.0000     0.00000000     0.00000000    -0.88116300

      Atomic Mass 
      ----------- 

      F                 18.998400
      H                  1.007825


 Effective nuclear repulsion energy (a.u.)       4.8644072855

            Nuclear Dipole moment (a.u.) 
            ----------------------------
        X                 Y               Z
 ---------------- ---------------- ----------------
     0.0000000000     0.0000000000     0.0000000000

      Symmetry information
      --------------------

 Group name             C4v       
 Group number             18
 Group order               8
 No. of unique centers     2

      Symmetry unique atoms

     1    2



                                Z-matrix (autoz)
                                -------- 

 Units are Angstrom for bonds and degrees for angles

      Type          Name      I     J     K     L     M      Value
      ----------- --------  ----- ----- ----- ----- ----- ----------
    1 Stretch                  1     2                       0.97907


            XYZ format geometry
            -------------------
     2
 geometry
 F                     0.00000000     0.00000000     0.09790700
 H                     0.00000000     0.00000000    -0.88116300

  library name resolved from: .nwchemrc
  library file name is: </home/d3y133/nwchem-releases/nwchem-merge/nwchem-dev/QA/../src/basis/libraries/>
  


 Summary of "ao basis" -> "" (cartesian)
 ------------------------------------------------------------------------------
       Tag                 Description            Shells   Functions and Types
 ---------------- ------------------------------  ------  ---------------------
 *                          6-31+G*                   on all atoms 




                           NWChem Geometry Optimization
                           ----------------------------




                       test4 MPWB1K/6-31+G* HF optimization


 maximum gradient threshold         (gmax) =   0.000450
 rms gradient threshold             (grms) =   0.000300
 maximum cartesian step threshold   (xmax) =   0.001800
 rms cartesian step threshold       (xrms) =   0.001200
 fixed trust radius                (trust) =   0.300000
 maximum step size to saddle      (sadstp) =   0.100000
 energy precision                  (eprec) =   5.0D-06
 maximum number of steps          (nptopt) =   20
 initial hessian option           (inhess) =    0
 line search option               (linopt) =    1
 hessian update option            (modupd) =    1
 saddle point option              (modsad) =    0
 initial eigen-mode to follow     (moddir) =    0
 initial variable to follow       (vardir) =    0
 follow first negative mode     (firstneg) =    T
 apply conjugacy                    (opcg) =    F
 source of zmatrix                         =   autoz   


          -------------------
          Energy Minimization
          -------------------


 Names of Z-matrix variables 
    1         

 Variables with the same non-blank name are constrained to be equal


 Using diagonal initial Hessian 
 Scaling for Hessian diagonals: bonds = 1.00  angles = 0.25  torsions = 0.10

          --------
          Step   0
          --------


                         Geometry "geometry" -> "geometry"
                         ---------------------------------

 Output coordinates in angstroms (scale by  1.889725989 to convert to a.u.)

  No.       Tag          Charge          X              Y              Z
 ---- ---------------- ---------- -------------- -------------- --------------
    1 F                    9.0000     0.00000000     0.00000000     0.09790700
    2 H                    1.0000     0.00000000     0.00000000    -0.88116300

      Atomic Mass 
      ----------- 

      F                 18.998400
      H                  1.007825


 Effective nuclear repulsion energy (a.u.)       4.8644072855

            Nuclear Dipole moment (a.u.) 
            ----------------------------
        X                 Y               Z
 ---------------- ---------------- ----------------
     0.0000000000     0.0000000000     0.0000000000

      Symmetry information
      --------------------

 Group name             C4v       
 Group number             18
 Group order               8
 No. of unique centers     2

      Symmetry unique atoms

     1    2


                                 NWChem DFT Module
                                 -----------------


                       test4 MPWB1K/6-31+G* HF optimization


                      Basis "ao basis" -> "ao basis" (cartesian)
                      -----
  F (Fluorine)
  ------------
            Exponent  Coefficients 
       -------------- ---------------------------------------------------------
  1 S  7.00171309E+03  0.001820
  1 S  1.05136609E+03  0.013916
  1 S  2.39285690E+02  0.068405
  1 S  6.73974453E+01  0.233186
  1 S  2.15199573E+01  0.471267
  1 S  7.40310130E+00  0.356619

  2 S  2.08479528E+01 -0.108507
  2 S  4.80830834E+00 -0.146452
  2 S  1.34406986E+00  1.128689

  3 P  2.08479528E+01  0.071629
  3 P  4.80830834E+00  0.345912
  3 P  1.34406986E+00  0.722470

  4 S  3.58151393E-01  1.000000

  5 P  3.58151393E-01  1.000000

  6 S  1.07600000E-01  1.000000

  7 P  1.07600000E-01  1.000000

  8 D  8.00000000E-01  1.000000

  H (Hydrogen)
  ------------
            Exponent  Coefficients 
       -------------- ---------------------------------------------------------
  1 S  1.87311370E+01  0.033495
  1 S  2.82539370E+00  0.234727
  1 S  6.40121700E-01  0.813757

  2 S  1.61277800E-01  1.000000



 Summary of "ao basis" -> "ao basis" (cartesian)
 ------------------------------------------------------------------------------
       Tag                 Description            Shells   Functions and Types
 ---------------- ------------------------------  ------  ---------------------
 F                          6-31+G*                  8       19   4s3p1d
 H                          6-31+G*                  2        2   2s


  Caching 1-el integrals 

            General Information
            -------------------
          SCF calculation type: DFT
          Wavefunction type:  closed shell.
          No. of atoms     :     2
          No. of electrons :    10
           Alpha electrons :     5
            Beta electrons :     5
          Charge           :     0
          Spin multiplicity:     1
          Use of symmetry is: on ; symmetry adaption is: on 
          Maximum number of iterations:  30
          AO basis - number of functions:    21
                     number of shells:    10
          Convergence on energy requested: 1.00D-06
          Convergence on density requested: 1.00D-05
          Convergence on gradient requested: 5.00D-04

              XC Information
              --------------
                       MPWB1K Method XC Functional
                     Hartree-Fock (Exact) Exchange  0.440          
                        mPW91  Exchange Functional  0.560          
                         B95 Correlation Potential  1.000          

             Grid Information
             ----------------
          Grid used for XC integration:  fine      
          Radial quadrature: Mura-Knowles        
          Angular quadrature: Lebedev. 
          Tag              B.-S. Rad. Rad. Pts. Rad. Cut. Ang. Pts.
          ---              ---------- --------- --------- ---------
          F                   0.50       70           6.0       590
          H                   0.35       60           6.0       590
          Grid pruning is: on 
          Number of quadrature shells:   130
          Spatial weights used:  Erf1

          Convergence Information
          -----------------------
          Convergence aids based upon iterative change in 
          total energy or number of iterations. 
          Levelshifting, if invoked, occurs when the 
          HOMO/LUMO gap drops below (HL_TOL): 1.00D-02
          DIIS, if invoked, will attempt to extrapolate 
          using up to (NFOCK): 10 stored Fock matrices.

                    Damping( 0%)  Levelshifting(0.5)       DIIS
                  --------------- ------------------- ---------------
          dE  on:    start            ASAP                start   
          dE off:    2 iters         30 iters            30 iters 


      Screening Tolerance Information
      -------------------------------
          Density screening/tol_rho: 1.00D-10
          AO Gaussian exp screening on grid/accAOfunc:  14
          CD Gaussian exp screening on grid/accCDfunc:  20
          XC Gaussian exp screening on grid/accXCfunc:  20
          Schwarz screening/accCoul: 1.00D-08


      Superposition of Atomic Density Guess
      -------------------------------------

 Sum of atomic energies:         -99.87648832

      Non-variational initial energy
      ------------------------------

 Total energy =     -99.802337
 1-e energy   =    -148.972955
 2-e energy   =      44.306210
 HOMO         =      -0.641371
 LUMO         =       0.098285


      Symmetry analysis of molecular orbitals - initial
      -------------------------------------------------


 !! scf_movecs_sym_adapt:    2 vectors were symmetry contaminated

  Symmetry fudging
  Numbering of irreducible representations: 

     1 a1          2 a2          3 b1          4 b2          5 e       

  Orbital symmetries:

     1 a1          2 a1          3 a1          4 e           5 e       
     6 a1          7 a1          8 e           9 e          10 a1      
    11 a1         12 e          13 e          14 a1         15 a1      

   Time after variat. SCF:      0.0
   Time prior to 1st pass:      0.0

 #quartets = 1.540D+03 #integrals = 6.810D+03 #direct =  0.0% #cached =100.0%


 Integral file          = /home/d3y133/nwchem-releases/nwchem-merge/nwchem-dev/QA/scratchdir/dft_mpwb1khf.aoints.0
 Record size in doubles =  65536        No. of integs per rec  =  43688
 Max. records in memory =      2        Max. records in file   =  20851
 No. of bits per label  =      8        No. of bits per value  =     64


File balance: exchanges=     0  moved=     0  time=   0.0


 Grid_pts file          = /home/d3y133/nwchem-releases/nwchem-merge/nwchem-dev/QA/scratchdir/dft_mpwb1khf.gridpts.0
 Record size in doubles =  12289        No. of grid_pts per rec  =   3070
 Max. records in memory =      8        Max. recs in file   =    111204


           Memory utilization after 1st SCF pass: 
           Heap Space remaining (MW):       16.15            16153016
          Stack Space remaining (MW):       16.38            16383783

   convergence    iter        energy       DeltaE   RMS-Dens  Diis-err    time
 ---------------- ----- ----------------- --------- --------- ---------  ------
 d= 0,ls=0.0,diis     1   -100.3739164391 -1.05D+02  2.34D-02  2.64D-01     0.1
 d= 0,ls=0.0,diis     2   -100.3813632620 -7.45D-03  9.41D-03  2.97D-01     0.1
 d= 0,ls=0.0,diis     3   -100.4039047247 -2.25D-02  1.03D-03  2.63D-03     0.2
 d= 0,ls=0.0,diis     4   -100.4041144804 -2.10D-04  1.54D-04  4.81D-05     0.2
 d= 0,ls=0.0,diis     5   -100.4041187902 -4.31D-06  2.05D-05  1.96D-07     0.2
 d= 0,ls=0.0,diis     6   -100.4041188235 -3.33D-08  1.86D-06  1.31D-09     0.2


         Total DFT energy =     -100.404118823486
      One electron energy =     -149.876944258796
           Coulomb energy =       55.365008350703
    Exchange-Corr. energy =      -10.756590200875
 Nuclear repulsion energy =        4.864407285482

 Numeric. integr. density =        9.999999969364

     Total iterative time =      0.2s



                       DFT Final Molecular Orbital Analysis
                       ------------------------------------

 Vector    1  Occ=2.000000D+00  E=-2.519342D+01  Symmetry=a1
              MO Center= -1.3D-20, -3.0D-20,  9.8D-02, r^2= 1.2D-02
   Bfn.  Coefficient  Atom+Function         Bfn.  Coefficient  Atom+Function  
  ----- ------------  ---------------      ----- ------------  ---------------
     1     -0.993508  1 F  s          

 Vector    2  Occ=2.000000D+00  E=-1.311911D+00  Symmetry=a1
              MO Center=  4.8D-19,  1.3D-18, -2.5D-02, r^2= 3.7D-01
   Bfn.  Coefficient  Atom+Function         Bfn.  Coefficient  Atom+Function  
  ----- ------------  ---------------      ----- ------------  ---------------
     2      0.534373  1 F  s                  6      0.420353  1 F  s          
     1     -0.224603  1 F  s          

 Vector    3  Occ=2.000000D+00  E=-6.100738D-01  Symmetry=a1
              MO Center=  4.9D-18, -2.0D-17, -1.7D-02, r^2= 6.2D-01
   Bfn.  Coefficient  Atom+Function         Bfn.  Coefficient  Atom+Function  
  ----- ------------  ---------------      ----- ------------  ---------------
     5      0.559933  1 F  pz                 9      0.337000  1 F  pz         
    20     -0.258619  2 H  s                  6      0.193308  1 F  s          

 Vector    4  Occ=2.000000D+00  E=-4.865930D-01  Symmetry=e
              MO Center=  4.7D-17, -2.2D-17,  8.4D-02, r^2= 4.9D-01
   Bfn.  Coefficient  Atom+Function         Bfn.  Coefficient  Atom+Function  
  ----- ------------  ---------------      ----- ------------  ---------------
     4      0.652030  1 F  py                 8      0.423486  1 F  py         

 Vector    5  Occ=2.000000D+00  E=-4.865930D-01  Symmetry=e
              MO Center=  7.3D-18, -5.2D-18,  8.4D-02, r^2= 4.9D-01
   Bfn.  Coefficient  Atom+Function         Bfn.  Coefficient  Atom+Function  
  ----- ------------  ---------------      ----- ------------  ---------------
     3      0.652030  1 F  px                 7      0.423486  1 F  px         

 Vector    6  Occ=0.000000D+00  E= 7.241439D-02  Symmetry=a1
              MO Center=  2.2D-17,  1.5D-17, -8.6D-01, r^2= 1.8D+00
   Bfn.  Coefficient  Atom+Function         Bfn.  Coefficient  Atom+Function  
  ----- ------------  ---------------      ----- ------------  ---------------
     6     -1.075366  1 F  s                 21      0.944250  2 H  s          
    10      0.444210  1 F  s                  9      0.378543  1 F  pz         
     5      0.295602  1 F  pz                20      0.195106  2 H  s          

 Vector    7  Occ=0.000000D+00  E= 2.271903D-01  Symmetry=a1
              MO Center= -1.4D-17, -1.1D-17,  8.0D-01, r^2= 2.9D+00
   Bfn.  Coefficient  Atom+Function         Bfn.  Coefficient  Atom+Function  
  ----- ------------  ---------------      ----- ------------  ---------------
    10     -1.439479  1 F  s                  6      0.905887  1 F  s          
    13     -0.610447  1 F  pz                21      0.575830  2 H  s          
     9      0.409360  1 F  pz                 5      0.214125  1 F  pz         

 Vector    8  Occ=0.000000D+00  E= 2.374598D-01  Symmetry=e
              MO Center=  1.4D-18, -5.9D-19,  9.8D-02, r^2= 3.8D+00
   Bfn.  Coefficient  Atom+Function         Bfn.  Coefficient  Atom+Function  
  ----- ------------  ---------------      ----- ------------  ---------------
    12      1.190126  1 F  py                 8     -0.437321  1 F  py         
     4     -0.240028  1 F  py         

 Vector    9  Occ=0.000000D+00  E= 2.374598D-01  Symmetry=e
              MO Center=  1.0D-19, -1.4D-19,  9.8D-02, r^2= 3.8D+00
   Bfn.  Coefficient  Atom+Function         Bfn.  Coefficient  Atom+Function  
  ----- ------------  ---------------      ----- ------------  ---------------
    11      1.190126  1 F  px                 7     -0.437321  1 F  px         
     3     -0.240028  1 F  px         

 Vector   10  Occ=0.000000D+00  E= 2.800097D-01  Symmetry=a1
              MO Center= -2.0D-17,  4.4D-18, -2.3D-03, r^2= 3.9D+00
   Bfn.  Coefficient  Atom+Function         Bfn.  Coefficient  Atom+Function  
  ----- ------------  ---------------      ----- ------------  ---------------
    21      3.050640  2 H  s                 10     -2.722785  1 F  s          
    13      2.097775  1 F  pz                 6      0.317610  1 F  s          
    20      0.176449  2 H  s          

 Vector   11  Occ=0.000000D+00  E= 9.748067D-01  Symmetry=a1
              MO Center=  5.6D-18,  1.4D-17, -8.4D-01, r^2= 1.3D+00
   Bfn.  Coefficient  Atom+Function         Bfn.  Coefficient  Atom+Function  
  ----- ------------  ---------------      ----- ------------  ---------------
    21      2.760947  2 H  s                 10     -1.444285  1 F  s          
    20     -1.150882  2 H  s                 13      0.993041  1 F  pz         
     6     -0.969426  1 F  s                  2      0.534464  1 F  s          
     5     -0.453362  1 F  pz                14      0.269892  1 F  dxx        
    17      0.269892  1 F  dyy                9      0.157170  1 F  pz         

 Vector   12  Occ=0.000000D+00  E= 1.546353D+00  Symmetry=e
              MO Center=  3.7D-16, -5.6D-16,  4.9D-02, r^2= 1.3D+00
   Bfn.  Coefficient  Atom+Function         Bfn.  Coefficient  Atom+Function  
  ----- ------------  ---------------      ----- ------------  ---------------
     7      1.409387  1 F  px                 3     -0.952017  1 F  px         
    11     -0.650861  1 F  px                16     -0.199981  1 F  dxz        

 Vector   13  Occ=0.000000D+00  E= 1.546353D+00  Symmetry=e
              MO Center=  1.8D-16,  6.9D-16,  4.9D-02, r^2= 1.3D+00
   Bfn.  Coefficient  Atom+Function         Bfn.  Coefficient  Atom+Function  
  ----- ------------  ---------------      ----- ------------  ---------------
     8     -1.409387  1 F  py                 4      0.952017  1 F  py         
    12      0.650861  1 F  py                18      0.199981  1 F  dyz        

 Vector   14  Occ=0.000000D+00  E= 1.605736D+00  Symmetry=a1
              MO Center= -1.7D-16,  2.2D-16,  5.1D-01, r^2= 1.1D+00
   Bfn.  Coefficient  Atom+Function         Bfn.  Coefficient  Atom+Function  
  ----- ------------  ---------------      ----- ------------  ---------------
     9     -1.451166  1 F  pz                 5      0.848504  1 F  pz         
    13      0.836733  1 F  pz                 6     -0.814050  1 F  s          
    21      0.576134  2 H  s                 20     -0.446334  2 H  s          
     2      0.416750  1 F  s                 17      0.291385  1 F  dyy        
    14      0.291385  1 F  dxx        

 Vector   15  Occ=0.000000D+00  E= 1.689969D+00  Symmetry=a1
              MO Center= -2.0D-16, -3.6D-16,  4.5D-02, r^2= 1.7D+00
   Bfn.  Coefficient  Atom+Function         Bfn.  Coefficient  Atom+Function  
  ----- ------------  ---------------      ----- ------------  ---------------
     6      4.884011  1 F  s                  2     -2.245871  1 F  s          
    10     -1.745568  1 F  s                 19     -1.178184  1 F  dzz        
    17     -0.690510  1 F  dyy               14     -0.690510  1 F  dxx        
    21      0.669726  2 H  s                 20     -0.344709  2 H  s          
    13      0.321249  1 F  pz         


 center of mass
 --------------
 x =   0.00000000 y =   0.00000000 z =   0.09181383

 moments of inertia (a.u.)
 ------------------
           3.276137825660           0.000000000000           0.000000000000
           0.000000000000           3.276137825660           0.000000000000
           0.000000000000           0.000000000000           0.000000000000

     Multipole analysis of the density
     ---------------------------------

     L   x y z        total         alpha         beta         nuclear
     -   - - -        -----         -----         ----         -------
     0   0 0 0      0.000000     -5.000000     -5.000000     10.000000

     1   1 0 0      0.000000      0.000000      0.000000      0.000000
     1   0 1 0      0.000000      0.000000      0.000000      0.000000
     1   0 0 1     -0.843498     -0.421749     -0.421749      0.000000

     2   2 0 0     -4.378655     -2.189327     -2.189327      0.000000
     2   1 1 0      0.000000      0.000000      0.000000      0.000000
     2   1 0 1      0.000000      0.000000      0.000000      0.000000
     2   0 2 0     -4.378655     -2.189327     -2.189327      0.000000
     2   0 1 1      0.000000      0.000000      0.000000      0.000000
     2   0 0 2     -2.549216     -2.815023     -2.815023      3.080830


 Parallel integral file used       4 records with       0 large values



                            NWChem DFT Gradient Module
                            --------------------------


                       test4 MPWB1K/6-31+G* HF optimization



  charge          =   0.00
  wavefunction    = closed shell

  Using symmetry


                         DFT ENERGY GRADIENTS

    atom               coordinates                        gradient
                 x          y          z           x          y          z
   1 F       0.000000   0.000000   0.185017    0.000000   0.000000   0.051600
   2 H       0.000000   0.000000  -1.665157    0.000000   0.000000  -0.051600

                 ----------------------------------------
                 |  Time  |  1-e(secs)   |  2-e(secs)   |
                 ----------------------------------------
                 |  CPU   |       0.00   |       0.02   |
                 ----------------------------------------
                 |  WALL  |       0.00   |       0.02   |
                 ----------------------------------------

@ Step       Energy      Delta E   Gmax     Grms     Xrms     Xmax   Walltime
@ ---- ---------------- -------- -------- -------- -------- -------- --------
@    0    -100.40411882  0.0D+00  0.05160  0.05160  0.00000  0.00000      0.5
                                                       ok       ok  



                                Z-matrix (autoz)
                                -------- 

 Units are Angstrom for bonds and degrees for angles

      Type          Name      I     J     K     L     M      Value     Gradient
      ----------- --------  ----- ----- ----- ----- ----- ---------- ----------
    1 Stretch                  1     2                       0.97907    0.05160


                                 NWChem DFT Module
                                 -----------------


                       test4 MPWB1K/6-31+G* HF optimization


  Caching 1-el integrals 

            General Information
            -------------------
          SCF calculation type: DFT
          Wavefunction type:  closed shell.
          No. of atoms     :     2
          No. of electrons :    10
           Alpha electrons :     5
            Beta electrons :     5
          Charge           :     0
          Spin multiplicity:     1
          Use of symmetry is: on ; symmetry adaption is: on 
          Maximum number of iterations:  30
          AO basis - number of functions:    21
                     number of shells:    10
          Convergence on energy requested: 1.00D-06
          Convergence on density requested: 1.00D-05
          Convergence on gradient requested: 5.00D-04

              XC Information
              --------------
                       MPWB1K Method XC Functional
                     Hartree-Fock (Exact) Exchange  0.440          
                        mPW91  Exchange Functional  0.560          
                         B95 Correlation Potential  1.000          

             Grid Information
             ----------------
          Grid used for XC integration:  fine      
          Radial quadrature: Mura-Knowles        
          Angular quadrature: Lebedev. 
          Tag              B.-S. Rad. Rad. Pts. Rad. Cut. Ang. Pts.
          ---              ---------- --------- --------- ---------
          F                   0.50       70           6.0       590
          H                   0.35       60           6.0       590
          Grid pruning is: on 
          Number of quadrature shells:   130
          Spatial weights used:  Erf1

          Convergence Information
          -----------------------
          Convergence aids based upon iterative change in 
          total energy or number of iterations. 
          Levelshifting, if invoked, occurs when the 
          HOMO/LUMO gap drops below (HL_TOL): 1.00D-02
          DIIS, if invoked, will attempt to extrapolate 
          using up to (NFOCK): 10 stored Fock matrices.

                    Damping( 0%)  Levelshifting(0.5)       DIIS
                  --------------- ------------------- ---------------
          dE  on:    start            ASAP                start   
          dE off:    2 iters         30 iters            30 iters 


      Screening Tolerance Information
      -------------------------------
          Density screening/tol_rho: 1.00D-10
          AO Gaussian exp screening on grid/accAOfunc:  14
          CD Gaussian exp screening on grid/accCDfunc:  20
          XC Gaussian exp screening on grid/accXCfunc:  20
          Schwarz screening/accCoul: 1.00D-08


 Loading old vectors from job with title :

test4 MPWB1K/6-31+G* HF optimization


      Symmetry analysis of molecular orbitals - initial
      -------------------------------------------------

  Numbering of irreducible representations: 

     1 a1          2 a2          3 b1          4 b2          5 e       

  Orbital symmetries:

     1 a1          2 a1          3 a1          4 e           5 e       
     6 a1          7 a1          8 e           9 e          10 a1      
    11 a1         12 e          13 e          14 a1         15 a1      

   Time after variat. SCF:      0.3
   Time prior to 1st pass:      0.3

 #quartets = 1.540D+03 #integrals = 6.810D+03 #direct =  0.0% #cached =100.0%


 Integral file          = /home/d3y133/nwchem-releases/nwchem-merge/nwchem-dev/QA/scratchdir/dft_mpwb1khf.aoints.0
 Record size in doubles =  65536        No. of integs per rec  =  43688
 Max. records in memory =      2        Max. records in file   =  20851
 No. of bits per label  =      8        No. of bits per value  =     64


File balance: exchanges=     0  moved=     0  time=   0.0


 Grid_pts file          = /home/d3y133/nwchem-releases/nwchem-merge/nwchem-dev/QA/scratchdir/dft_mpwb1khf.gridpts.0
 Record size in doubles =  12289        No. of grid_pts per rec  =   3070
 Max. records in memory =      8        Max. recs in file   =    111204


           Memory utilization after 1st SCF pass: 
           Heap Space remaining (MW):       16.15            16153016
          Stack Space remaining (MW):       16.38            16383783

   convergence    iter        energy       DeltaE   RMS-Dens  Diis-err    time
 ---------------- ----- ----------------- --------- --------- ---------  ------
 d= 0,ls=0.0,diis     1   -100.4024214437 -1.06D+02  6.39D-03  2.32D-02     0.4
 d= 0,ls=0.0,diis     2   -100.4046827297 -2.26D-03  1.77D-03  6.40D-03     0.4
 d= 0,ls=0.0,diis     3   -100.4050433178 -3.61D-04  6.99D-04  1.56D-03     0.4
 d= 0,ls=0.0,diis     4   -100.4051649726 -1.22D-04  8.45D-05  1.12D-05     0.5
 d= 0,ls=0.0,diis     5   -100.4051660887 -1.12D-06  1.42D-05  6.26D-08     0.5
 d= 0,ls=0.0,diis     6   -100.4051661065 -1.78D-08  5.93D-07  1.33D-10     0.5


         Total DFT energy =     -100.405166106508
      One electron energy =     -150.726310389747
           Coulomb energy =       55.757230092470
    Exchange-Corr. energy =      -10.804579490243
 Nuclear repulsion energy =        5.368493681012

 Numeric. integr. density =       10.000000050159

     Total iterative time =      0.2s



                       DFT Final Molecular Orbital Analysis
                       ------------------------------------

 Vector    1  Occ=2.000000D+00  E=-2.519095D+01  Symmetry=a1
              MO Center=  2.5D-20, -2.1D-20,  5.2D-02, r^2= 1.2D-02
   Bfn.  Coefficient  Atom+Function         Bfn.  Coefficient  Atom+Function  
  ----- ------------  ---------------      ----- ------------  ---------------
     1      0.993465  1 F  s          

 Vector    2  Occ=2.000000D+00  E=-1.342245D+00  Symmetry=a1
              MO Center= -2.5D-18,  2.2D-18, -9.7D-02, r^2= 3.7D-01
   Bfn.  Coefficient  Atom+Function         Bfn.  Coefficient  Atom+Function  
  ----- ------------  ---------------      ----- ------------  ---------------
     2     -0.531723  1 F  s                  6     -0.394148  1 F  s          
     1      0.221487  1 F  s          

 Vector    3  Occ=2.000000D+00  E=-6.358280D-01  Symmetry=a1
              MO Center= -8.5D-17,  5.5D-17, -3.0D-03, r^2= 5.7D-01
   Bfn.  Coefficient  Atom+Function         Bfn.  Coefficient  Atom+Function  
  ----- ------------  ---------------      ----- ------------  ---------------
     5     -0.567884  1 F  pz                 9     -0.322148  1 F  pz         
    20      0.264573  2 H  s                  6     -0.232552  1 F  s          

 Vector    4  Occ=2.000000D+00  E=-4.954626D-01  Symmetry=e
              MO Center= -5.8D-18,  1.3D-17,  3.5D-02, r^2= 4.9D-01
   Bfn.  Coefficient  Atom+Function         Bfn.  Coefficient  Atom+Function  
  ----- ------------  ---------------      ----- ------------  ---------------
     4     -0.664227  1 F  py                 8     -0.433850  1 F  py         

 Vector    5  Occ=2.000000D+00  E=-4.954626D-01  Symmetry=e
              MO Center=  7.0D-19, -5.6D-18,  3.5D-02, r^2= 4.9D-01
   Bfn.  Coefficient  Atom+Function         Bfn.  Coefficient  Atom+Function  
  ----- ------------  ---------------      ----- ------------  ---------------
     3     -0.664227  1 F  px                 7     -0.433850  1 F  px         

 Vector    6  Occ=0.000000D+00  E= 9.849826D-02  Symmetry=a1
              MO Center= -5.8D-18,  2.8D-19, -8.4D-01, r^2= 2.1D+00
   Bfn.  Coefficient  Atom+Function         Bfn.  Coefficient  Atom+Function  
  ----- ------------  ---------------      ----- ------------  ---------------
     6     -1.222969  1 F  s                 10      0.863156  1 F  s          
    21      0.583985  2 H  s                  9      0.327753  1 F  pz         
    13     -0.266776  1 F  pz                 5      0.239648  1 F  pz         

 Vector    7  Occ=0.000000D+00  E= 2.286543D-01  Symmetry=a1
              MO Center=  1.2D-17,  6.2D-18,  8.8D-01, r^2= 2.9D+00
   Bfn.  Coefficient  Atom+Function         Bfn.  Coefficient  Atom+Function  
  ----- ------------  ---------------      ----- ------------  ---------------
    10     -0.969748  1 F  s                 13     -0.939817  1 F  pz         
     6      0.768817  1 F  s                  9      0.411364  1 F  pz         
     5      0.204557  1 F  pz                21      0.160479  2 H  s          

 Vector    8  Occ=0.000000D+00  E= 2.360098D-01  Symmetry=e
              MO Center=  3.8D-17, -3.4D-17,  5.2D-02, r^2= 3.8D+00
   Bfn.  Coefficient  Atom+Function         Bfn.  Coefficient  Atom+Function  
  ----- ------------  ---------------      ----- ------------  ---------------
    11     -0.850141  1 F  px                12      0.833296  1 F  py         
     7      0.311054  1 F  px                 8     -0.304890  1 F  py         
     3      0.170329  1 F  px                 4     -0.166954  1 F  py         

 Vector    9  Occ=0.000000D+00  E= 2.360098D-01  Symmetry=e
              MO Center=  8.1D-19,  3.2D-19,  5.2D-02, r^2= 3.8D+00
   Bfn.  Coefficient  Atom+Function         Bfn.  Coefficient  Atom+Function  
  ----- ------------  ---------------      ----- ------------  ---------------
    12      0.850141  1 F  py                11      0.833296  1 F  px         
     8     -0.311054  1 F  py                 7     -0.304890  1 F  px         
     4     -0.170329  1 F  py                 3     -0.166954  1 F  px         

 Vector   10  Occ=0.000000D+00  E= 2.919899D-01  Symmetry=a1
              MO Center= -6.5D-17,  4.4D-19, -2.7D-01, r^2= 3.6D+00
   Bfn.  Coefficient  Atom+Function         Bfn.  Coefficient  Atom+Function  
  ----- ------------  ---------------      ----- ------------  ---------------
    21      3.790259  2 H  s                 10     -3.189811  1 F  s          
    13      2.068287  1 F  pz                 9      0.273605  1 F  pz         
    20      0.187045  2 H  s                  5      0.155162  1 F  pz         

 Vector   11  Occ=0.000000D+00  E= 1.097223D+00  Symmetry=a1
              MO Center=  1.5D-18,  2.2D-18, -7.4D-01, r^2= 1.2D+00
   Bfn.  Coefficient  Atom+Function         Bfn.  Coefficient  Atom+Function  
  ----- ------------  ---------------      ----- ------------  ---------------
    21     -2.998638  2 H  s                 10      1.669064  1 F  s          
    20      1.178695  2 H  s                 13     -1.075035  1 F  pz         
     6      1.041831  1 F  s                  2     -0.582605  1 F  s          
     5      0.495765  1 F  pz                17     -0.303292  1 F  dyy        
    14     -0.303292  1 F  dxx        

 Vector   12  Occ=0.000000D+00  E= 1.540600D+00  Symmetry=e
              MO Center=  1.6D-15,  2.4D-15, -1.6D-03, r^2= 1.3D+00
   Bfn.  Coefficient  Atom+Function         Bfn.  Coefficient  Atom+Function  
  ----- ------------  ---------------      ----- ------------  ---------------
     8     -1.157599  1 F  py                 7     -0.810464  1 F  px         
     4      0.783186  1 F  py                 3      0.548328  1 F  px         
    12      0.535149  1 F  py                11      0.374671  1 F  px         
    18      0.182682  1 F  dyz        

 Vector   13  Occ=0.000000D+00  E= 1.540600D+00  Symmetry=e
              MO Center=  2.6D-16,  1.6D-16, -1.6D-03, r^2= 1.3D+00
   Bfn.  Coefficient  Atom+Function         Bfn.  Coefficient  Atom+Function  
  ----- ------------  ---------------      ----- ------------  ---------------
     7      1.157599  1 F  px                 8     -0.810464  1 F  py         
     3     -0.783186  1 F  px                 4      0.548328  1 F  py         
    11     -0.535149  1 F  px                12      0.374671  1 F  py         
    16     -0.182682  1 F  dxz        

 Vector   14  Occ=0.000000D+00  E= 1.569930D+00  Symmetry=a1
              MO Center=  2.9D-16,  1.7D-16,  2.2D-01, r^2= 1.2D+00
   Bfn.  Coefficient  Atom+Function         Bfn.  Coefficient  Atom+Function  
  ----- ------------  ---------------      ----- ------------  ---------------
     9      1.515218  1 F  pz                 5     -0.815857  1 F  pz         
    13     -0.814715  1 F  pz                20      0.543353  2 H  s          
    21     -0.540255  2 H  s                  6     -0.522638  1 F  s          
    10      0.440151  1 F  s                 19      0.346334  1 F  dzz        
     2      0.181676  1 F  s          

 Vector   15  Occ=0.000000D+00  E= 1.668626D+00  Symmetry=a1
              MO Center= -1.9D-15, -2.6D-15,  2.2D-01, r^2= 1.7D+00
   Bfn.  Coefficient  Atom+Function         Bfn.  Coefficient  Atom+Function  
  ----- ------------  ---------------      ----- ------------  ---------------
     6      4.947125  1 F  s                  2     -2.282224  1 F  s          
    10     -1.519473  1 F  s                 19     -1.097321  1 F  dzz        
    17     -0.751880  1 F  dyy               14     -0.751880  1 F  dxx        
    21      0.284751  2 H  s                  5     -0.211541  1 F  pz         
     9      0.206468  1 F  pz                20     -0.186472  2 H  s          


 center of mass
 --------------
 x =   0.00000000 y =   0.00000000 z =   0.01370232

 moments of inertia (a.u.)
 ------------------
           2.689782303905           0.000000000000           0.000000000000
           0.000000000000           2.689782303905           0.000000000000
           0.000000000000           0.000000000000           0.000000000000

     Multipole analysis of the density
     ---------------------------------

     L   x y z        total         alpha         beta         nuclear
     -   - - -        -----         -----         ----         -------
     0   0 0 0      0.000000     -5.000000     -5.000000     10.000000

     1   1 0 0      0.000000      0.000000      0.000000      0.000000
     1   0 1 0      0.000000      0.000000      0.000000      0.000000
     1   0 0 1     -0.778513     -0.041804     -0.041804     -0.694904

     2   2 0 0     -4.309873     -2.154937     -2.154937      0.000000
     2   1 1 0      0.000000      0.000000      0.000000      0.000000
     2   1 0 1      0.000000      0.000000      0.000000      0.000000
     2   0 2 0     -4.309873     -2.154937     -2.154937      0.000000
     2   0 1 1      0.000000      0.000000      0.000000      0.000000
     2   0 0 2     -2.635509     -2.606614     -2.606614      2.577719


 Parallel integral file used       4 records with       0 large values

 Line search: 
     step= 1.00 grad=-9.0D-03 hess= 7.9D-03 energy=   -100.405166 mode=downhill
 new step= 0.57                   predicted energy=   -100.406656

          --------
          Step   1
          --------


                         Geometry "geometry" -> "geometry"
                         ---------------------------------

 Output coordinates in angstroms (scale by  1.889725989 to convert to a.u.)

  No.       Tag          Charge          X              Y              Z
 ---- ---------------- ---------- -------------- -------------- --------------
    1 F                    9.0000     0.00000000     0.00000000     0.07188374
    2 H                    1.0000     0.00000000     0.00000000    -0.85513974

      Atomic Mass 
      ----------- 

      F                 18.998400
      H                  1.007825


 Effective nuclear repulsion energy (a.u.)       5.1375130739

            Nuclear Dipole moment (a.u.) 
            ----------------------------
        X                 Y               Z
 ---------------- ---------------- ----------------
     0.0000000000     0.0000000000    -0.3934146566

      Symmetry information
      --------------------

 Group name             C4v       
 Group number             18
 Group order               8
 No. of unique centers     2

      Symmetry unique atoms

     1    2


                                 NWChem DFT Module
                                 -----------------


                       test4 MPWB1K/6-31+G* HF optimization


  Caching 1-el integrals 

            General Information
            -------------------
          SCF calculation type: DFT
          Wavefunction type:  closed shell.
          No. of atoms     :     2
          No. of electrons :    10
           Alpha electrons :     5
            Beta electrons :     5
          Charge           :     0
          Spin multiplicity:     1
          Use of symmetry is: on ; symmetry adaption is: on 
          Maximum number of iterations:  30
          AO basis - number of functions:    21
                     number of shells:    10
          Convergence on energy requested: 1.00D-06
          Convergence on density requested: 1.00D-05
          Convergence on gradient requested: 5.00D-04

              XC Information
              --------------
                       MPWB1K Method XC Functional
                     Hartree-Fock (Exact) Exchange  0.440          
                        mPW91  Exchange Functional  0.560          
                         B95 Correlation Potential  1.000          

             Grid Information
             ----------------
          Grid used for XC integration:  fine      
          Radial quadrature: Mura-Knowles        
          Angular quadrature: Lebedev. 
          Tag              B.-S. Rad. Rad. Pts. Rad. Cut. Ang. Pts.
          ---              ---------- --------- --------- ---------
          F                   0.50       70           6.0       590
          H                   0.35       60           6.0       590
          Grid pruning is: on 
          Number of quadrature shells:   130
          Spatial weights used:  Erf1

          Convergence Information
          -----------------------
          Convergence aids based upon iterative change in 
          total energy or number of iterations. 
          Levelshifting, if invoked, occurs when the 
          HOMO/LUMO gap drops below (HL_TOL): 1.00D-02
          DIIS, if invoked, will attempt to extrapolate 
          using up to (NFOCK): 10 stored Fock matrices.

                    Damping( 0%)  Levelshifting(0.5)       DIIS
                  --------------- ------------------- ---------------
          dE  on:    start            ASAP                start   
          dE off:    2 iters         30 iters            30 iters 


      Screening Tolerance Information
      -------------------------------
          Density screening/tol_rho: 1.00D-10
          AO Gaussian exp screening on grid/accAOfunc:  14
          CD Gaussian exp screening on grid/accCDfunc:  20
          XC Gaussian exp screening on grid/accXCfunc:  20
          Schwarz screening/accCoul: 1.00D-08


 Loading old vectors from job with title :

test4 MPWB1K/6-31+G* HF optimization


      Symmetry analysis of molecular orbitals - initial
      -------------------------------------------------

  Numbering of irreducible representations: 

     1 a1          2 a2          3 b1          4 b2          5 e       

  Orbital symmetries:

     1 a1          2 a1          3 a1          4 e           5 e       
     6 a1          7 a1          8 e           9 e          10 a1      
    11 a1         12 e          13 e          14 a1         15 a1      

   Time after variat. SCF:      0.5
   Time prior to 1st pass:      0.5

 #quartets = 1.540D+03 #integrals = 6.810D+03 #direct =  0.0% #cached =100.0%


 Integral file          = /home/d3y133/nwchem-releases/nwchem-merge/nwchem-dev/QA/scratchdir/dft_mpwb1khf.aoints.0
 Record size in doubles =  65536        No. of integs per rec  =  43688
 Max. records in memory =      2        Max. records in file   =  20851
 No. of bits per label  =      8        No. of bits per value  =     64


File balance: exchanges=     0  moved=     0  time=   0.0


 Grid_pts file          = /home/d3y133/nwchem-releases/nwchem-merge/nwchem-dev/QA/scratchdir/dft_mpwb1khf.gridpts.0
 Record size in doubles =  12289        No. of grid_pts per rec  =   3070
 Max. records in memory =      8        Max. recs in file   =    111204


           Memory utilization after 1st SCF pass: 
           Heap Space remaining (MW):       16.15            16153016
          Stack Space remaining (MW):       16.38            16383783

   convergence    iter        energy       DeltaE   RMS-Dens  Diis-err    time
 ---------------- ----- ----------------- --------- --------- ---------  ------
 d= 0,ls=0.0,diis     1   -100.4063318551 -1.06D+02  3.00D-03  4.98D-03     0.6
 d= 0,ls=0.0,diis     2   -100.4067996500 -4.68D-04  8.37D-04  1.42D-03     0.6
 d= 0,ls=0.0,diis     3   -100.4068776686 -7.80D-05  3.37D-04  3.64D-04     0.7
 d= 0,ls=0.0,diis     4   -100.4069062532 -2.86D-05  3.84D-05  2.46D-06     0.7
 d= 0,ls=0.0,diis     5   -100.4069064945 -2.41D-07  7.04D-06  1.37D-08     0.7


         Total DFT energy =     -100.406906494512
      One electron energy =     -150.340350036762
           Coulomb energy =       55.578517416344
    Exchange-Corr. energy =      -10.782586947971
 Nuclear repulsion energy =        5.137513073878

 Numeric. integr. density =        9.999999984871

     Total iterative time =      0.2s



                       DFT Final Molecular Orbital Analysis
                       ------------------------------------

 Vector    1  Occ=2.000000D+00  E=-2.519224D+01  Symmetry=a1
              MO Center= -5.1D-20, -8.3D-21,  7.2D-02, r^2= 1.2D-02
   Bfn.  Coefficient  Atom+Function         Bfn.  Coefficient  Atom+Function  
  ----- ------------  ---------------      ----- ------------  ---------------
     1      0.993486  1 F  s          

 Vector    2  Occ=2.000000D+00  E=-1.328087D+00  Symmetry=a1
              MO Center=  9.1D-19, -3.7D-18, -6.6D-02, r^2= 3.7D-01
   Bfn.  Coefficient  Atom+Function         Bfn.  Coefficient  Atom+Function  
  ----- ------------  ---------------      ----- ------------  ---------------
     2     -0.533037  1 F  s                  6     -0.405982  1 F  s          
     1      0.222851  1 F  s          

 Vector    3  Occ=2.000000D+00  E=-6.245518D-01  Symmetry=a1
              MO Center= -6.4D-18,  6.9D-18, -9.3D-03, r^2= 5.9D-01
   Bfn.  Coefficient  Atom+Function         Bfn.  Coefficient  Atom+Function  
  ----- ------------  ---------------      ----- ------------  ---------------
     5     -0.564378  1 F  pz                 9     -0.329232  1 F  pz         
    20      0.261868  2 H  s                  6     -0.215407  1 F  s          

 Vector    4  Occ=2.000000D+00  E=-4.914900D-01  Symmetry=e
              MO Center= -5.3D-17,  1.8D-17,  5.6D-02, r^2= 4.9D-01
   Bfn.  Coefficient  Atom+Function         Bfn.  Coefficient  Atom+Function  
  ----- ------------  ---------------      ----- ------------  ---------------
     4      0.649396  1 F  py                 8      0.423195  1 F  py         

 Vector    5  Occ=2.000000D+00  E=-4.914900D-01  Symmetry=e
              MO Center=  2.6D-17,  1.8D-18,  5.6D-02, r^2= 4.9D-01
   Bfn.  Coefficient  Atom+Function         Bfn.  Coefficient  Atom+Function  
  ----- ------------  ---------------      ----- ------------  ---------------
     3     -0.649396  1 F  px                 7     -0.423195  1 F  px         

 Vector    6  Occ=0.000000D+00  E= 8.846439D-02  Symmetry=a1
              MO Center= -3.3D-18,  2.2D-17, -8.5D-01, r^2= 2.0D+00
   Bfn.  Coefficient  Atom+Function         Bfn.  Coefficient  Atom+Function  
  ----- ------------  ---------------      ----- ------------  ---------------
     6      1.172035  1 F  s                 21     -0.771649  2 H  s          
    10     -0.663134  1 F  s                  9     -0.354816  1 F  pz         
     5     -0.265455  1 F  pz                20     -0.167052  2 H  s          
    13      0.159098  1 F  pz         

 Vector    7  Occ=0.000000D+00  E= 2.283365D-01  Symmetry=a1
              MO Center= -7.8D-18, -2.5D-18,  8.5D-01, r^2= 2.9D+00
   Bfn.  Coefficient  Atom+Function         Bfn.  Coefficient  Atom+Function  
  ----- ------------  ---------------      ----- ------------  ---------------
    10      1.182226  1 F  s                  6     -0.814302  1 F  s          
    13      0.799080  1 F  pz                 9     -0.417162  1 F  pz         
    21     -0.361167  2 H  s                  5     -0.211611  1 F  pz         

 Vector    8  Occ=0.000000D+00  E= 2.366341D-01  Symmetry=e
              MO Center= -4.0D-19,  9.2D-19,  7.2D-02, r^2= 3.8D+00
   Bfn.  Coefficient  Atom+Function         Bfn.  Coefficient  Atom+Function  
  ----- ------------  ---------------      ----- ------------  ---------------
    11      1.071720  1 F  px                12     -0.518169  1 F  py         
     7     -0.392895  1 F  px                 3     -0.215415  1 F  px         
     8      0.189962  1 F  py         

 Vector    9  Occ=0.000000D+00  E= 2.366341D-01  Symmetry=e
              MO Center= -7.7D-18, -3.6D-18,  7.2D-02, r^2= 3.8D+00
   Bfn.  Coefficient  Atom+Function         Bfn.  Coefficient  Atom+Function  
  ----- ------------  ---------------      ----- ------------  ---------------
    12      1.071720  1 F  py                11      0.518169  1 F  px         
     8     -0.392895  1 F  py                 4     -0.215415  1 F  py         
     7     -0.189962  1 F  px         

 Vector   10  Occ=0.000000D+00  E= 2.848026D-01  Symmetry=a1
              MO Center=  2.6D-18, -8.7D-18, -1.5D-01, r^2= 3.8D+00
   Bfn.  Coefficient  Atom+Function         Bfn.  Coefficient  Atom+Function  
  ----- ------------  ---------------      ----- ------------  ---------------
    21     -3.460344  2 H  s                 10      2.997043  1 F  s          
    13     -2.088355  1 F  pz                 9     -0.185687  1 F  pz         
    20     -0.183651  2 H  s                  6     -0.159006  1 F  s          

 Vector   11  Occ=0.000000D+00  E= 1.039705D+00  Symmetry=a1
              MO Center= -2.4D-18,  1.3D-18, -7.8D-01, r^2= 1.3D+00
   Bfn.  Coefficient  Atom+Function         Bfn.  Coefficient  Atom+Function  
  ----- ------------  ---------------      ----- ------------  ---------------
    21     -2.894332  2 H  s                 10      1.567179  1 F  s          
    20      1.165714  2 H  s                 13     -1.041125  1 F  pz         
     6      1.021069  1 F  s                  2     -0.565685  1 F  s          
     5      0.478223  1 F  pz                14     -0.289091  1 F  dxx        
    17     -0.289091  1 F  dyy        

 Vector   12  Occ=0.000000D+00  E= 1.543004D+00  Symmetry=e
              MO Center= -1.9D-16, -2.1D-16,  2.0D-02, r^2= 1.3D+00
   Bfn.  Coefficient  Atom+Function         Bfn.  Coefficient  Atom+Function  
  ----- ------------  ---------------      ----- ------------  ---------------
     8     -1.282565  1 F  py                 4      0.867159  1 F  py         
     7     -0.596086  1 F  px                12      0.592676  1 F  py         
     3      0.403022  1 F  px                11      0.275453  1 F  px         
    18      0.194202  1 F  dyz        

 Vector   13  Occ=0.000000D+00  E= 1.543004D+00  Symmetry=e
              MO Center=  4.1D-15, -2.1D-15,  2.0D-02, r^2= 1.3D+00
   Bfn.  Coefficient  Atom+Function         Bfn.  Coefficient  Atom+Function  
  ----- ------------  ---------------      ----- ------------  ---------------
     7      1.282565  1 F  px                 3     -0.867159  1 F  px         
     8     -0.596086  1 F  py                11     -0.592676  1 F  px         
     4      0.403022  1 F  py                12      0.275453  1 F  py         
    16     -0.194202  1 F  dxz        

 Vector   14  Occ=0.000000D+00  E= 1.587815D+00  Symmetry=a1
              MO Center= -2.2D-16,  1.3D-16,  3.5D-01, r^2= 1.2D+00
   Bfn.  Coefficient  Atom+Function         Bfn.  Coefficient  Atom+Function  
  ----- ------------  ---------------      ----- ------------  ---------------
     9      1.493117  1 F  pz                13     -0.844939  1 F  pz         
     5     -0.835051  1 F  pz                21     -0.596489  2 H  s          
    20      0.508672  2 H  s                 10      0.330736  1 F  s          
    19      0.256916  1 F  dzz               17     -0.169788  1 F  dyy        
    14     -0.169788  1 F  dxx        

 Vector   15  Occ=0.000000D+00  E= 1.676206D+00  Symmetry=a1
              MO Center= -4.4D-15,  1.9D-15,  1.5D-01, r^2= 1.7D+00
   Bfn.  Coefficient  Atom+Function         Bfn.  Coefficient  Atom+Function  
  ----- ------------  ---------------      ----- ------------  ---------------
     6     -4.957089  1 F  s                  2      2.283328  1 F  s          
    10      1.638588  1 F  s                 19      1.138338  1 F  dzz        
    17      0.732557  1 F  dyy               14      0.732557  1 F  dxx        
    21     -0.464875  2 H  s                 20      0.257995  2 H  s          


 center of mass
 --------------
 x =   0.00000000 y =   0.00000000 z =   0.04759162

 moments of inertia (a.u.)
 ------------------
           2.937082491692           0.000000000000           0.000000000000
           0.000000000000           2.937082491692           0.000000000000
           0.000000000000           0.000000000000           0.000000000000

     Multipole analysis of the density
     ---------------------------------

     L   x y z        total         alpha         beta         nuclear
     -   - - -        -----         -----         ----         -------
     0   0 0 0      0.000000     -5.000000     -5.000000     10.000000

     1   1 0 0      0.000000      0.000000      0.000000      0.000000
     1   0 1 0      0.000000      0.000000      0.000000      0.000000
     1   0 0 1     -0.806940     -0.206763     -0.206763     -0.393415

     2   2 0 0     -4.340589     -2.170294     -2.170294      0.000000
     2   1 1 0      0.000000      0.000000      0.000000      0.000000
     2   1 0 1      0.000000      0.000000      0.000000      0.000000
     2   0 2 0     -4.340589     -2.170294     -2.170294      0.000000
     2   0 1 1      0.000000      0.000000      0.000000      0.000000
     2   0 0 2     -2.598798     -2.688131     -2.688131      2.777465


 Parallel integral file used       4 records with       0 large values



                            NWChem DFT Gradient Module
                            --------------------------


                       test4 MPWB1K/6-31+G* HF optimization



  charge          =   0.00
  wavefunction    = closed shell

  Using symmetry


                         DFT ENERGY GRADIENTS

    atom               coordinates                        gradient
                 x          y          z           x          y          z
   1 F       0.000000   0.000000   0.135841    0.000000   0.000000   0.001994
   2 H       0.000000   0.000000  -1.615980    0.000000   0.000000  -0.001994

                 ----------------------------------------
                 |  Time  |  1-e(secs)   |  2-e(secs)   |
                 ----------------------------------------
                 |  CPU   |       0.00   |       0.02   |
                 ----------------------------------------
                 |  WALL  |       0.00   |       0.02   |
                 ----------------------------------------

  Step       Energy      Delta E   Gmax     Grms     Xrms     Xmax   Walltime
  ---- ---------------- -------- -------- -------- -------- -------- --------
@    1    -100.40690649 -2.8D-03  0.00199  0.00199  0.02839  0.04918      1.2
                                                                    



                                Z-matrix (autoz)
                                -------- 

 Units are Angstrom for bonds and degrees for angles

      Type          Name      I     J     K     L     M      Value     Gradient
      ----------- --------  ----- ----- ----- ----- ----- ---------- ----------
    1 Stretch                  1     2                       0.92702    0.00199


                                 NWChem DFT Module
                                 -----------------


                       test4 MPWB1K/6-31+G* HF optimization


  Caching 1-el integrals 

            General Information
            -------------------
          SCF calculation type: DFT
          Wavefunction type:  closed shell.
          No. of atoms     :     2
          No. of electrons :    10
           Alpha electrons :     5
            Beta electrons :     5
          Charge           :     0
          Spin multiplicity:     1
          Use of symmetry is: on ; symmetry adaption is: on 
          Maximum number of iterations:  30
          AO basis - number of functions:    21
                     number of shells:    10
          Convergence on energy requested: 1.00D-06
          Convergence on density requested: 1.00D-05
          Convergence on gradient requested: 5.00D-04

              XC Information
              --------------
                       MPWB1K Method XC Functional
                     Hartree-Fock (Exact) Exchange  0.440          
                        mPW91  Exchange Functional  0.560          
                         B95 Correlation Potential  1.000          

             Grid Information
             ----------------
          Grid used for XC integration:  fine      
          Radial quadrature: Mura-Knowles        
          Angular quadrature: Lebedev. 
          Tag              B.-S. Rad. Rad. Pts. Rad. Cut. Ang. Pts.
          ---              ---------- --------- --------- ---------
          F                   0.50       70           6.0       590
          H                   0.35       60           6.0       590
          Grid pruning is: on 
          Number of quadrature shells:   130
          Spatial weights used:  Erf1

          Convergence Information
          -----------------------
          Convergence aids based upon iterative change in 
          total energy or number of iterations. 
          Levelshifting, if invoked, occurs when the 
          HOMO/LUMO gap drops below (HL_TOL): 1.00D-02
          DIIS, if invoked, will attempt to extrapolate 
          using up to (NFOCK): 10 stored Fock matrices.

                    Damping( 0%)  Levelshifting(0.5)       DIIS
                  --------------- ------------------- ---------------
          dE  on:    start            ASAP                start   
          dE off:    2 iters         30 iters            30 iters 


      Screening Tolerance Information
      -------------------------------
          Density screening/tol_rho: 1.00D-10
          AO Gaussian exp screening on grid/accAOfunc:  14
          CD Gaussian exp screening on grid/accCDfunc:  20
          XC Gaussian exp screening on grid/accXCfunc:  20
          Schwarz screening/accCoul: 1.00D-08


 Loading old vectors from job with title :

test4 MPWB1K/6-31+G* HF optimization


      Symmetry analysis of molecular orbitals - initial
      -------------------------------------------------

  Numbering of irreducible representations: 

     1 a1          2 a2          3 b1          4 b2          5 e       

  Orbital symmetries:

     1 a1          2 a1          3 a1          4 e           5 e       
     6 a1          7 a1          8 e           9 e          10 a1      
    11 a1         12 e          13 e          14 a1         15 a1      

   Time after variat. SCF:      0.8
   Time prior to 1st pass:      0.8

 #quartets = 1.540D+03 #integrals = 6.810D+03 #direct =  0.0% #cached =100.0%


 Integral file          = /home/d3y133/nwchem-releases/nwchem-merge/nwchem-dev/QA/scratchdir/dft_mpwb1khf.aoints.0
 Record size in doubles =  65536        No. of integs per rec  =  43688
 Max. records in memory =      2        Max. records in file   =  20851
 No. of bits per label  =      8        No. of bits per value  =     64


File balance: exchanges=     0  moved=     0  time=   0.0


 Grid_pts file          = /home/d3y133/nwchem-releases/nwchem-merge/nwchem-dev/QA/scratchdir/dft_mpwb1khf.gridpts.0
 Record size in doubles =  12289        No. of grid_pts per rec  =   3070
 Max. records in memory =      8        Max. recs in file   =    111204


           Memory utilization after 1st SCF pass: 
           Heap Space remaining (MW):       16.15            16153016
          Stack Space remaining (MW):       16.38            16383783

   convergence    iter        energy       DeltaE   RMS-Dens  Diis-err    time
 ---------------- ----- ----------------- --------- --------- ---------  ------
 d= 0,ls=0.0,diis     1   -100.4069081701 -1.06D+02  1.50D-04  1.24D-05     0.9
 d= 0,ls=0.0,diis     2   -100.4069093649 -1.19D-06  4.19D-05  3.56D-06     0.9
 d= 0,ls=0.0,diis     3   -100.4069095629 -1.98D-07  1.68D-05  9.02D-07     0.9
 d= 0,ls=0.0,diis     4   -100.4069096339 -7.09D-08  1.98D-06  6.44D-09     0.9


         Total DFT energy =     -100.406909633859
      One electron energy =     -150.360020399641
           Coulomb energy =       55.587697094328
    Exchange-Corr. energy =      -10.783718273243
 Nuclear repulsion energy =        5.149131944697

 Numeric. integr. density =        9.999999982700

     Total iterative time =      0.1s



                       DFT Final Molecular Orbital Analysis
                       ------------------------------------

 Vector    1  Occ=2.000000D+00  E=-2.519218D+01  Symmetry=a1
              MO Center= -1.5D-21, -2.4D-21,  7.1D-02, r^2= 1.2D-02
   Bfn.  Coefficient  Atom+Function         Bfn.  Coefficient  Atom+Function  
  ----- ------------  ---------------      ----- ------------  ---------------
     1     -0.993485  1 F  s          

 Vector    2  Occ=2.000000D+00  E=-1.328789D+00  Symmetry=a1
              MO Center=  3.3D-19, -1.2D-18, -6.7D-02, r^2= 3.7D-01
   Bfn.  Coefficient  Atom+Function         Bfn.  Coefficient  Atom+Function  
  ----- ------------  ---------------      ----- ------------  ---------------
     2     -0.532976  1 F  s                  6     -0.405377  1 F  s          
     1      0.222780  1 F  s          

 Vector    3  Occ=2.000000D+00  E=-6.251377D-01  Symmetry=a1
              MO Center=  4.4D-17,  1.5D-18, -9.0D-03, r^2= 5.9D-01
   Bfn.  Coefficient  Atom+Function         Bfn.  Coefficient  Atom+Function  
  ----- ------------  ---------------      ----- ------------  ---------------
     5     -0.564558  1 F  pz                 9     -0.328885  1 F  pz         
    20      0.262005  2 H  s                  6     -0.216306  1 F  s          

 Vector    4  Occ=2.000000D+00  E=-4.916936D-01  Symmetry=e
              MO Center=  2.1D-17, -2.3D-17,  5.5D-02, r^2= 4.9D-01
   Bfn.  Coefficient  Atom+Function         Bfn.  Coefficient  Atom+Function  
  ----- ------------  ---------------      ----- ------------  ---------------
     4      0.659246  1 F  py                 8      0.429668  1 F  py         

 Vector    5  Occ=2.000000D+00  E=-4.916936D-01  Symmetry=e
              MO Center=  2.5D-17,  4.7D-18,  5.5D-02, r^2= 4.9D-01
   Bfn.  Coefficient  Atom+Function         Bfn.  Coefficient  Atom+Function  
  ----- ------------  ---------------      ----- ------------  ---------------
     3     -0.659246  1 F  px                 7     -0.429668  1 F  px         

 Vector    6  Occ=0.000000D+00  E= 8.904425D-02  Symmetry=a1
              MO Center=  6.3D-18,  1.2D-17, -8.5D-01, r^2= 2.0D+00
   Bfn.  Coefficient  Atom+Function         Bfn.  Coefficient  Atom+Function  
  ----- ------------  ---------------      ----- ------------  ---------------
     6      1.175311  1 F  s                 21     -0.762976  2 H  s          
    10     -0.673017  1 F  s                  9     -0.353587  1 F  pz         
     5     -0.264148  1 F  pz                20     -0.165882  2 H  s          
    13      0.164373  1 F  pz         

 Vector    7  Occ=0.000000D+00  E= 2.283666D-01  Symmetry=a1
              MO Center= -6.8D-18,  1.4D-17,  8.5D-01, r^2= 2.9D+00
   Bfn.  Coefficient  Atom+Function         Bfn.  Coefficient  Atom+Function  
  ----- ------------  ---------------      ----- ------------  ---------------
    10      1.170965  1 F  s                  6     -0.811268  1 F  s          
    13      0.806842  1 F  pz                 9     -0.417095  1 F  pz         
    21     -0.350997  2 H  s                  5     -0.211334  1 F  pz         

 Vector    8  Occ=0.000000D+00  E= 2.366011D-01  Symmetry=e
              MO Center=  4.6D-20, -2.0D-18,  7.1D-02, r^2= 3.8D+00
   Bfn.  Coefficient  Atom+Function         Bfn.  Coefficient  Atom+Function  
  ----- ------------  ---------------      ----- ------------  ---------------
    11     -1.190126  1 F  px                 7      0.436259  1 F  px         
     3      0.239176  1 F  px         

 Vector    9  Occ=0.000000D+00  E= 2.366011D-01  Symmetry=e
              MO Center= -3.8D-18, -6.1D-19,  7.1D-02, r^2= 3.8D+00
   Bfn.  Coefficient  Atom+Function         Bfn.  Coefficient  Atom+Function  
  ----- ------------  ---------------      ----- ------------  ---------------
    12     -1.190126  1 F  py                 8      0.436259  1 F  py         
     4      0.239176  1 F  py         

 Vector   10  Occ=0.000000D+00  E= 2.850992D-01  Symmetry=a1
              MO Center=  8.3D-18,  8.2D-18, -1.6D-01, r^2= 3.7D+00
   Bfn.  Coefficient  Atom+Function         Bfn.  Coefficient  Atom+Function  
  ----- ------------  ---------------      ----- ------------  ---------------
    21     -3.477437  2 H  s                 10      3.007691  1 F  s          
    13     -2.087486  1 F  pz                 9     -0.190356  1 F  pz         
    20     -0.183887  2 H  s                  6     -0.151311  1 F  s          

 Vector   11  Occ=0.000000D+00  E= 1.042552D+00  Symmetry=a1
              MO Center= -2.0D-17, -9.6D-18, -7.8D-01, r^2= 1.3D+00
   Bfn.  Coefficient  Atom+Function         Bfn.  Coefficient  Atom+Function  
  ----- ------------  ---------------      ----- ------------  ---------------
    21      2.899776  2 H  s                 10     -1.572332  1 F  s          
    20     -1.166364  2 H  s                 13      1.042968  1 F  pz         
     6     -1.022714  1 F  s                  2      0.566787  1 F  s          
     5     -0.479193  1 F  pz                14      0.289865  1 F  dxx        
    17      0.289865  1 F  dyy        

 Vector   12  Occ=0.000000D+00  E= 1.542874D+00  Symmetry=e
              MO Center=  1.6D-16,  2.4D-16,  1.9D-02, r^2= 1.3D+00
   Bfn.  Coefficient  Atom+Function         Bfn.  Coefficient  Atom+Function  
  ----- ------------  ---------------      ----- ------------  ---------------
     8     -1.374701  1 F  py                 4      0.929487  1 F  py         
    12      0.635267  1 F  py                 7      0.332116  1 F  px         
     3     -0.224556  1 F  px                18      0.208646  1 F  dyz        
    11     -0.153475  1 F  px         

 Vector   13  Occ=0.000000D+00  E= 1.542874D+00  Symmetry=e
              MO Center=  2.2D-15,  6.4D-16,  1.9D-02, r^2= 1.3D+00
   Bfn.  Coefficient  Atom+Function         Bfn.  Coefficient  Atom+Function  
  ----- ------------  ---------------      ----- ------------  ---------------
     7      1.374701  1 F  px                 3     -0.929487  1 F  px         
    11     -0.635267  1 F  px                 8      0.332116  1 F  py         
     4     -0.224556  1 F  py                16     -0.208646  1 F  dxz        
    12     -0.153475  1 F  py         

 Vector   14  Occ=0.000000D+00  E= 1.586963D+00  Symmetry=a1
              MO Center= -7.6D-16, -3.9D-16,  3.4D-01, r^2= 1.2D+00
   Bfn.  Coefficient  Atom+Function         Bfn.  Coefficient  Atom+Function  
  ----- ------------  ---------------      ----- ------------  ---------------
     9      1.494401  1 F  pz                13     -0.844183  1 F  pz         
     5     -0.834150  1 F  pz                21     -0.595347  2 H  s          
    20      0.510842  2 H  s                 10      0.338325  1 F  s          
    19      0.262460  1 F  dzz               17     -0.164864  1 F  dyy        
    14     -0.164864  1 F  dxx        

 Vector   15  Occ=0.000000D+00  E= 1.675742D+00  Symmetry=a1
              MO Center= -1.8D-15, -7.8D-16,  1.5D-01, r^2= 1.7D+00
   Bfn.  Coefficient  Atom+Function         Bfn.  Coefficient  Atom+Function  
  ----- ------------  ---------------      ----- ------------  ---------------
     6      4.957734  1 F  s                  2     -2.283805  1 F  s          
    10     -1.633014  1 F  s                 19     -1.136290  1 F  dzz        
    17     -0.733848  1 F  dyy               14     -0.733848  1 F  dxx        
    21      0.455816  2 H  s                 20     -0.254254  2 H  s          


 center of mass
 --------------
 x =   0.00000000 y =   0.00000000 z =   0.04581428

 moments of inertia (a.u.)
 ------------------
           2.923842558937           0.000000000000           0.000000000000
           0.000000000000           2.923842558937           0.000000000000
           0.000000000000           0.000000000000           0.000000000000

     Multipole analysis of the density
     ---------------------------------

     L   x y z        total         alpha         beta         nuclear
     -   - - -        -----         -----         ----         -------
     0   0 0 0      0.000000     -5.000000     -5.000000     10.000000

     1   1 0 0      0.000000      0.000000      0.000000      0.000000
     1   0 1 0      0.000000      0.000000      0.000000      0.000000
     1   0 0 1     -0.805453     -0.198113     -0.198113     -0.409226

     2   2 0 0     -4.339004     -2.169502     -2.169502      0.000000
     2   1 1 0      0.000000      0.000000      0.000000      0.000000
     2   1 0 1      0.000000      0.000000      0.000000      0.000000
     2   0 2 0     -4.339004     -2.169502     -2.169502      0.000000
     2   0 1 1      0.000000      0.000000      0.000000      0.000000
     2   0 0 2     -2.600771     -2.683527     -2.683527      2.766283


 Parallel integral file used       4 records with       0 large values

 Line search: 
     step= 1.00 grad=-7.9D-06 hess= 4.7D-06 energy=   -100.406910 mode=accept  
 new step= 1.00                   predicted energy=   -100.406910

          --------
          Step   2
          --------


                         Geometry "geometry" -> "geometry"
                         ---------------------------------

 Output coordinates in angstroms (scale by  1.889725989 to convert to a.u.)

  No.       Tag          Charge          X              Y              Z
 ---- ---------------- ---------- -------------- -------------- --------------
    1 F                    9.0000     0.00000000     0.00000000     0.07083784
    2 H                    1.0000     0.00000000     0.00000000    -0.85409384

      Atomic Mass 
      ----------- 

      F                 18.998400
      H                  1.007825


 Effective nuclear repulsion energy (a.u.)       5.1491319447

            Nuclear Dipole moment (a.u.) 
            ----------------------------
        X                 Y               Z
 ---------------- ---------------- ----------------
     0.0000000000     0.0000000000    -0.4092263892

      Symmetry information
      --------------------

 Group name             C4v       
 Group number             18
 Group order               8
 No. of unique centers     2

      Symmetry unique atoms

     1    2


                                 NWChem DFT Module
                                 -----------------


                       test4 MPWB1K/6-31+G* HF optimization



  The DFT is already converged 

         Total DFT energy =   -100.406909633859



                            NWChem DFT Gradient Module
                            --------------------------


                       test4 MPWB1K/6-31+G* HF optimization



  charge          =   0.00
  wavefunction    = closed shell

  Using symmetry


                         DFT ENERGY GRADIENTS

    atom               coordinates                        gradient
                 x          y          z           x          y          z
   1 F       0.000000   0.000000   0.133864    0.000000   0.000000  -0.000414
   2 H       0.000000   0.000000  -1.614003    0.000000   0.000000   0.000414

                 ----------------------------------------
                 |  Time  |  1-e(secs)   |  2-e(secs)   |
                 ----------------------------------------
                 |  CPU   |       0.00   |       0.02   |
                 ----------------------------------------
                 |  WALL  |       0.00   |       0.02   |
                 ----------------------------------------

  Step       Energy      Delta E   Gmax     Grms     Xrms     Xmax   Walltime
  ---- ---------------- -------- -------- -------- -------- -------- --------
@    2    -100.40690963 -3.1D-06  0.00041  0.00041  0.00114  0.00198      1.6
                                     ok                ok           



                                Z-matrix (autoz)
                                -------- 

 Units are Angstrom for bonds and degrees for angles

      Type          Name      I     J     K     L     M      Value     Gradient
      ----------- --------  ----- ----- ----- ----- ----- ---------- ----------
    1 Stretch                  1     2                       0.92493   -0.00041


                                 NWChem DFT Module
                                 -----------------


                       test4 MPWB1K/6-31+G* HF optimization


  Caching 1-el integrals 

            General Information
            -------------------
          SCF calculation type: DFT
          Wavefunction type:  closed shell.
          No. of atoms     :     2
          No. of electrons :    10
           Alpha electrons :     5
            Beta electrons :     5
          Charge           :     0
          Spin multiplicity:     1
          Use of symmetry is: on ; symmetry adaption is: on 
          Maximum number of iterations:  30
          AO basis - number of functions:    21
                     number of shells:    10
          Convergence on energy requested: 1.00D-06
          Convergence on density requested: 1.00D-05
          Convergence on gradient requested: 5.00D-04

              XC Information
              --------------
                       MPWB1K Method XC Functional
                     Hartree-Fock (Exact) Exchange  0.440          
                        mPW91  Exchange Functional  0.560          
                         B95 Correlation Potential  1.000          

             Grid Information
             ----------------
          Grid used for XC integration:  fine      
          Radial quadrature: Mura-Knowles        
          Angular quadrature: Lebedev. 
          Tag              B.-S. Rad. Rad. Pts. Rad. Cut. Ang. Pts.
          ---              ---------- --------- --------- ---------
          F                   0.50       70           6.0       590
          H                   0.35       60           6.0       590
          Grid pruning is: on 
          Number of quadrature shells:   130
          Spatial weights used:  Erf1

          Convergence Information
          -----------------------
          Convergence aids based upon iterative change in 
          total energy or number of iterations. 
          Levelshifting, if invoked, occurs when the 
          HOMO/LUMO gap drops below (HL_TOL): 1.00D-02
          DIIS, if invoked, will attempt to extrapolate 
          using up to (NFOCK): 10 stored Fock matrices.

                    Damping( 0%)  Levelshifting(0.5)       DIIS
                  --------------- ------------------- ---------------
          dE  on:    start            ASAP                start   
          dE off:    2 iters         30 iters            30 iters 


      Screening Tolerance Information
      -------------------------------
          Density screening/tol_rho: 1.00D-10
          AO Gaussian exp screening on grid/accAOfunc:  14
          CD Gaussian exp screening on grid/accCDfunc:  20
          XC Gaussian exp screening on grid/accXCfunc:  20
          Schwarz screening/accCoul: 1.00D-08


 Loading old vectors from job with title :

test4 MPWB1K/6-31+G* HF optimization


      Symmetry analysis of molecular orbitals - initial
      -------------------------------------------------

  Numbering of irreducible representations: 

     1 a1          2 a2          3 b1          4 b2          5 e       

  Orbital symmetries:

     1 a1          2 a1          3 a1          4 e           5 e       
     6 a1          7 a1          8 e           9 e          10 a1      
    11 a1         12 e          13 e          14 a1         15 a1      

   Time after variat. SCF:      1.0
   Time prior to 1st pass:      1.0

 #quartets = 1.540D+03 #integrals = 6.810D+03 #direct =  0.0% #cached =100.0%


 Integral file          = /home/d3y133/nwchem-releases/nwchem-merge/nwchem-dev/QA/scratchdir/dft_mpwb1khf.aoints.0
 Record size in doubles =  65536        No. of integs per rec  =  43688
 Max. records in memory =      2        Max. records in file   =  20851
 No. of bits per label  =      8        No. of bits per value  =     64


File balance: exchanges=     0  moved=     0  time=   0.0


 Grid_pts file          = /home/d3y133/nwchem-releases/nwchem-merge/nwchem-dev/QA/scratchdir/dft_mpwb1khf.gridpts.0
 Record size in doubles =  12289        No. of grid_pts per rec  =   3070
 Max. records in memory =      8        Max. recs in file   =    111204


           Memory utilization after 1st SCF pass: 
           Heap Space remaining (MW):       16.15            16153016
          Stack Space remaining (MW):       16.38            16383783

   convergence    iter        energy       DeltaE   RMS-Dens  Diis-err    time
 ---------------- ----- ----------------- --------- --------- ---------  ------
 d= 0,ls=0.0,diis     1   -100.4069097308 -1.06D+02  2.59D-05  3.68D-07     1.1
 d= 0,ls=0.0,diis     2   -100.4069097658 -3.50D-08  7.19D-06  1.06D-07     1.1


         Total DFT energy =     -100.406909765751
      One electron energy =     -150.355846048860
           Coulomb energy =       55.585212330503
    Exchange-Corr. energy =      -10.783406891322
 Nuclear repulsion energy =        5.147130843929

 Numeric. integr. density =        9.999999983084

     Total iterative time =      0.1s



                       DFT Final Molecular Orbital Analysis
                       ------------------------------------

 Vector    1  Occ=2.000000D+00  E=-2.519226D+01  Symmetry=a1
              MO Center=  6.0D-21, -3.7D-21,  7.1D-02, r^2= 1.2D-02
   Bfn.  Coefficient  Atom+Function         Bfn.  Coefficient  Atom+Function  
  ----- ------------  ---------------      ----- ------------  ---------------
     1     -0.993486  1 F  s          

 Vector    2  Occ=2.000000D+00  E=-1.328690D+00  Symmetry=a1
              MO Center=  2.4D-18, -4.4D-19, -6.7D-02, r^2= 3.7D-01
   Bfn.  Coefficient  Atom+Function         Bfn.  Coefficient  Atom+Function  
  ----- ------------  ---------------      ----- ------------  ---------------
     2     -0.532991  1 F  s                  6     -0.405482  1 F  s          
     1      0.222793  1 F  s          

 Vector    3  Occ=2.000000D+00  E=-6.250604D-01  Symmetry=a1
              MO Center= -1.2D-17,  6.9D-17, -9.0D-03, r^2= 5.9D-01
   Bfn.  Coefficient  Atom+Function         Bfn.  Coefficient  Atom+Function  
  ----- ------------  ---------------      ----- ------------  ---------------
     5     -0.564541  1 F  pz                 9     -0.328944  1 F  pz         
    20      0.261977  2 H  s                  6     -0.216142  1 F  s          

 Vector    4  Occ=2.000000D+00  E=-4.916814D-01  Symmetry=e
              MO Center=  3.4D-19, -6.2D-19,  5.5D-02, r^2= 4.9D-01
   Bfn.  Coefficient  Atom+Function         Bfn.  Coefficient  Atom+Function  
  ----- ------------  ---------------      ----- ------------  ---------------
     4      0.598487  1 F  py                 8      0.390053  1 F  py         
     3     -0.289123  1 F  px                 7     -0.188430  1 F  px         

 Vector    5  Occ=2.000000D+00  E=-4.916814D-01  Symmetry=e
              MO Center=  4.8D-17,  6.3D-17,  5.5D-02, r^2= 4.9D-01
   Bfn.  Coefficient  Atom+Function         Bfn.  Coefficient  Atom+Function  
  ----- ------------  ---------------      ----- ------------  ---------------
     3      0.598487  1 F  px                 7      0.390053  1 F  px         
     4      0.289123  1 F  py                 8      0.188430  1 F  py         

 Vector    6  Occ=0.000000D+00  E= 8.893947D-02  Symmetry=a1
              MO Center= -3.6D-18, -7.9D-18, -8.5D-01, r^2= 2.0D+00
   Bfn.  Coefficient  Atom+Function         Bfn.  Coefficient  Atom+Function  
  ----- ------------  ---------------      ----- ------------  ---------------
     6     -1.174735  1 F  s                 21      0.764493  2 H  s          
    10      0.671283  1 F  s                  9      0.353796  1 F  pz         
     5      0.264372  1 F  pz                20      0.166092  2 H  s          
    13     -0.163466  1 F  pz         

 Vector    7  Occ=0.000000D+00  E= 2.283585D-01  Symmetry=a1
              MO Center= -1.1D-17,  1.7D-17,  8.5D-01, r^2= 2.9D+00
   Bfn.  Coefficient  Atom+Function         Bfn.  Coefficient  Atom+Function  
  ----- ------------  ---------------      ----- ------------  ---------------
    10     -1.172985  1 F  s                  6      0.811797  1 F  s          
    13     -0.805452  1 F  pz                 9      0.417100  1 F  pz         
    21      0.352825  2 H  s                  5      0.211382  1 F  pz         

 Vector    8  Occ=0.000000D+00  E= 2.366041D-01  Symmetry=e
              MO Center=  1.2D-17, -3.2D-18,  7.1D-02, r^2= 3.8D+00
   Bfn.  Coefficient  Atom+Function         Bfn.  Coefficient  Atom+Function  
  ----- ------------  ---------------      ----- ------------  ---------------
    11      1.178728  1 F  px                 7     -0.432081  1 F  px         
     3     -0.236892  1 F  px                12     -0.166370  1 F  py         

 Vector    9  Occ=0.000000D+00  E= 2.366041D-01  Symmetry=e
              MO Center= -7.9D-18, -3.0D-17,  7.1D-02, r^2= 3.8D+00
   Bfn.  Coefficient  Atom+Function         Bfn.  Coefficient  Atom+Function  
  ----- ------------  ---------------      ----- ------------  ---------------
    12      1.178728  1 F  py                 8     -0.432081  1 F  py         
     4     -0.236892  1 F  py                11      0.166370  1 F  px         

 Vector   10  Occ=0.000000D+00  E= 2.850456D-01  Symmetry=a1
              MO Center= -1.7D-17, -4.8D-19, -1.5D-01, r^2= 3.7D+00
   Bfn.  Coefficient  Atom+Function         Bfn.  Coefficient  Atom+Function  
  ----- ------------  ---------------      ----- ------------  ---------------
    21     -3.474475  2 H  s                 10      3.005831  1 F  s          
    13     -2.087657  1 F  pz                 9     -0.189537  1 F  pz         
    20     -0.183848  2 H  s                  6     -0.152624  1 F  s          

 Vector   11  Occ=0.000000D+00  E= 1.042052D+00  Symmetry=a1
              MO Center= -4.4D-18,  2.1D-18, -7.8D-01, r^2= 1.3D+00
   Bfn.  Coefficient  Atom+Function         Bfn.  Coefficient  Atom+Function  
  ----- ------------  ---------------      ----- ------------  ---------------
    21     -2.898846  2 H  s                 10      1.571451  1 F  s          
    20      1.166242  2 H  s                 13     -1.042645  1 F  pz         
     6      1.022433  1 F  s                  2     -0.566598  1 F  s          
     5      0.479031  1 F  pz                17     -0.289731  1 F  dyy        
    14     -0.289731  1 F  dxx        

 Vector   12  Occ=0.000000D+00  E= 1.542878D+00  Symmetry=e
              MO Center=  8.6D-17,  4.0D-16,  1.9D-02, r^2= 1.3D+00
   Bfn.  Coefficient  Atom+Function         Bfn.  Coefficient  Atom+Function  
  ----- ------------  ---------------      ----- ------------  ---------------
     7      1.126478  1 F  px                 8     -0.855101  1 F  py         
     3     -0.761644  1 F  px                 4      0.578158  1 F  py         
    11     -0.520560  1 F  px                12      0.395153  1 F  py         
    16     -0.170899  1 F  dxz        

 Vector   13  Occ=0.000000D+00  E= 1.542878D+00  Symmetry=e
              MO Center=  2.7D-16,  2.9D-16,  1.9D-02, r^2= 1.3D+00
   Bfn.  Coefficient  Atom+Function         Bfn.  Coefficient  Atom+Function  
  ----- ------------  ---------------      ----- ------------  ---------------
     8     -1.126478  1 F  py                 7     -0.855101  1 F  px         
     4      0.761644  1 F  py                 3      0.578158  1 F  px         
    12      0.520560  1 F  py                11      0.395153  1 F  px         
    18      0.170899  1 F  dyz        

 Vector   14  Occ=0.000000D+00  E= 1.587094D+00  Symmetry=a1
              MO Center= -1.5D-17, -3.0D-16,  3.4D-01, r^2= 1.2D+00
   Bfn.  Coefficient  Atom+Function         Bfn.  Coefficient  Atom+Function  
  ----- ------------  ---------------      ----- ------------  ---------------
     9      1.494185  1 F  pz                13     -0.844330  1 F  pz         
     5     -0.834299  1 F  pz                21     -0.595573  2 H  s          
    20      0.510477  2 H  s                 10      0.337012  1 F  s          
    19      0.261491  1 F  dzz               17     -0.165726  1 F  dyy        
    14     -0.165726  1 F  dxx        

 Vector   15  Occ=0.000000D+00  E= 1.675810D+00  Symmetry=a1
              MO Center=  3.4D-18,  1.0D-16,  1.5D-01, r^2= 1.7D+00
   Bfn.  Coefficient  Atom+Function         Bfn.  Coefficient  Atom+Function  
  ----- ------------  ---------------      ----- ------------  ---------------
     6      4.957610  1 F  s                  2     -2.283719  1 F  s          
    10     -1.633987  1 F  s                 19     -1.136642  1 F  dzz        
    17     -0.733615  1 F  dyy               14     -0.733615  1 F  dxx        
    21      0.457390  2 H  s                 20     -0.254904  2 H  s          


 center of mass
 --------------
 x =   0.00000000 y =   0.00000000 z =   0.04611982

 moments of inertia (a.u.)
 ------------------
           2.926116463030           0.000000000000           0.000000000000
           0.000000000000           2.926116463030           0.000000000000
           0.000000000000           0.000000000000           0.000000000000

     Multipole analysis of the density
     ---------------------------------

     L   x y z        total         alpha         beta         nuclear
     -   - - -        -----         -----         ----         -------
     0   0 0 0      0.000000     -5.000000     -5.000000     10.000000

     1   1 0 0      0.000000      0.000000      0.000000      0.000000
     1   0 1 0      0.000000      0.000000      0.000000      0.000000
     1   0 0 1     -0.805764     -0.199628     -0.199628     -0.406508

     2   2 0 0     -4.339195     -2.169597     -2.169597      0.000000
     2   1 1 0      0.000000      0.000000      0.000000      0.000000
     2   1 0 1      0.000000      0.000000      0.000000      0.000000
     2   0 2 0     -4.339195     -2.169597     -2.169597      0.000000
     2   0 1 1      0.000000      0.000000      0.000000      0.000000
     2   0 0 2     -2.600287     -2.684244     -2.684244      2.768200


 Parallel integral file used       4 records with       0 large values

 Line search: 
     step= 1.00 grad=-2.8D-07 hess= 1.5D-07 energy=   -100.406910 mode=accept  
 new step= 1.00                   predicted energy=   -100.406910

          --------
          Step   3
          --------


                         Geometry "geometry" -> "geometry"
                         ---------------------------------

 Output coordinates in angstroms (scale by  1.889725989 to convert to a.u.)

  No.       Tag          Charge          X              Y              Z
 ---- ---------------- ---------- -------------- -------------- --------------
    1 F                    9.0000     0.00000000     0.00000000     0.07101764
    2 H                    1.0000     0.00000000     0.00000000    -0.85427364

      Atomic Mass 
      ----------- 

      F                 18.998400
      H                  1.007825


 Effective nuclear repulsion energy (a.u.)       5.1471308439

            Nuclear Dipole moment (a.u.) 
            ----------------------------
        X                 Y               Z
 ---------------- ---------------- ----------------
     0.0000000000     0.0000000000    -0.4065082467

      Symmetry information
      --------------------

 Group name             C4v       
 Group number             18
 Group order               8
 No. of unique centers     2

      Symmetry unique atoms

     1    2


                                 NWChem DFT Module
                                 -----------------


                       test4 MPWB1K/6-31+G* HF optimization



  The DFT is already converged 

         Total DFT energy =   -100.406909765751



                            NWChem DFT Gradient Module
                            --------------------------


                       test4 MPWB1K/6-31+G* HF optimization



  charge          =   0.00
  wavefunction    = closed shell

  Using symmetry


                         DFT ENERGY GRADIENTS

    atom               coordinates                        gradient
                 x          y          z           x          y          z
   1 F       0.000000   0.000000   0.134204    0.000000   0.000000   0.000012
   2 H       0.000000   0.000000  -1.614343    0.000000   0.000000  -0.000012

                 ----------------------------------------
                 |  Time  |  1-e(secs)   |  2-e(secs)   |
                 ----------------------------------------
                 |  CPU   |       0.00   |       0.02   |
                 ----------------------------------------
                 |  WALL  |       0.00   |       0.02   |
                 ----------------------------------------

  Step       Energy      Delta E   Gmax     Grms     Xrms     Xmax   Walltime
  ---- ---------------- -------- -------- -------- -------- -------- --------
@    3    -100.40690977 -1.3D-07  0.00001  0.00001  0.00020  0.00034      1.9
                                     ok       ok       ok       ok  



                                Z-matrix (autoz)
                                -------- 

 Units are Angstrom for bonds and degrees for angles

      Type          Name      I     J     K     L     M      Value     Gradient
      ----------- --------  ----- ----- ----- ----- ----- ---------- ----------
    1 Stretch                  1     2                       0.92529    0.00001


      ----------------------
      Optimization converged
      ----------------------


  Step       Energy      Delta E   Gmax     Grms     Xrms     Xmax   Walltime
  ---- ---------------- -------- -------- -------- -------- -------- --------
@    3    -100.40690977 -1.3D-07  0.00001  0.00001  0.00020  0.00034      1.9
                                     ok       ok       ok       ok  



                                Z-matrix (autoz)
                                -------- 

 Units are Angstrom for bonds and degrees for angles

      Type          Name      I     J     K     L     M      Value     Gradient
      ----------- --------  ----- ----- ----- ----- ----- ---------- ----------
    1 Stretch                  1     2                       0.92529    0.00001



                         Geometry "geometry" -> "geometry"
                         ---------------------------------

 Output coordinates in angstroms (scale by  1.889725989 to convert to a.u.)

  No.       Tag          Charge          X              Y              Z
 ---- ---------------- ---------- -------------- -------------- --------------
    1 F                    9.0000     0.00000000     0.00000000     0.07101764
    2 H                    1.0000     0.00000000     0.00000000    -0.85427364

      Atomic Mass 
      ----------- 

      F                 18.998400
      H                  1.007825


 Effective nuclear repulsion energy (a.u.)       5.1471308439

            Nuclear Dipole moment (a.u.) 
            ----------------------------
        X                 Y               Z
 ---------------- ---------------- ----------------
     0.0000000000     0.0000000000    -0.4065082467

      Symmetry information
      --------------------

 Group name             C4v       
 Group number             18
 Group order               8
 No. of unique centers     2

      Symmetry unique atoms

     1    2


                Final and change from initial internal coordinates
                --------------------------------------------------



                                Z-matrix (autoz)
                                -------- 

 Units are Angstrom for bonds and degrees for angles

      Type          Name      I     J     K     L     M      Value       Change
      ----------- --------  ----- ----- ----- ----- ----- ---------- ----------
    1 Stretch                  1     2                       0.92529   -0.05378

 ==============================================================================
                                internuclear distances
 ------------------------------------------------------------------------------
       center one      |      center two      | atomic units |  angstroms
 ------------------------------------------------------------------------------
    2 H                |   1 F                |     1.74855  |     0.92529
 ------------------------------------------------------------------------------
                         number of included internuclear distances:          1
 ==============================================================================




 Task  times  cpu:        1.2s     wall:        1.8s
 Summary of allocated global arrays
-----------------------------------
  No active global arrays



                         GA Statistics for process    0
                         ------------------------------

       create   destroy   get      put      acc     scatter   gather  read&inc
calls:  805      805     1.07e+04 2253      830        0        0      696     
number of processes/call 1.27e+00 1.34e+00 1.03e+00 0.00e+00 0.00e+00
bytes total:             4.93e+06 1.63e+06 1.42e+06 0.00e+00 0.00e+00 5.57e+03
bytes remote:            7.95e+05 3.08e+05 7.19e+04 0.00e+00 0.00e+00 0.00e+00
Max memory consumed for GA by this process: 103968 bytes
MA_summarize_allocated_blocks: starting scan ...
MA_summarize_allocated_blocks: scan completed: 0 heap blocks, 0 stack blocks
MA usage statistics:

	allocation statistics:
					      heap	     stack
					      ----	     -----
	current number of blocks	         0	         0
	maximum number of blocks	        25	        52
	current total bytes		         0	         0
	maximum total bytes		   1847744	  22510328
	maximum total K-bytes		      1848	     22511
	maximum total M-bytes		         2	        23


                                NWChem Input Module
                                -------------------





                                     CITATION
                                     --------
                Please cite the following reference when publishing
                           results obtained with NWChem:

                 M. Valiev, E.J. Bylaska, N. Govind, K. Kowalski,
              T.P. Straatsma, H.J.J. van Dam, D. Wang, J. Nieplocha,
                        E. Apra, T.L. Windus, W.A. de Jong
                 "NWChem: a comprehensive and scalable open-source
                  solution for large scale molecular simulations"
                      Comput. Phys. Commun. 181, 1477 (2010)
                           doi:10.1016/j.cpc.2010.04.018

                              AUTHORS & CONTRIBUTORS
                              ----------------------
      E. J. Bylaska, W. A. de Jong, N. Govind, K. Kowalski, T. P. Straatsma,
     M. Valiev, H. J. J. van Dam, D. Wang, E. Apra, T. L. Windus, J. Hammond,
     J. Autschbach, P. Nichols, S. Hirata, M. T. Hackler, Y. Zhao, P.-D. Fan,
      R. J. Harrison, M. Dupuis, D. M. A. Smith, K. Glaesemann, J. Nieplocha,
      V. Tipparaju, M. Krishnan, A. Vazquez-Mayagoitia, L. Jensen, M. Swart,
      Q. Wu, T. Van Voorhis, A. A. Auer, M. Nooijen, L. D. Crosby, E. Brown,
             G. Cisneros, G. I. Fann, H. Fruchtl, J. Garza, K. Hirao,
        R. Kendall, J. A. Nichols, K. Tsemekhman, K. Wolinski, J. Anchell,
       D. Bernholdt, P. Borowski, T. Clark, D. Clerc, H. Dachsel, M. Deegan,
        K. Dyall, D. Elwood, E. Glendening, M. Gutowski, A. Hess, J. Jaffe,
        B. Johnson, J. Ju, R. Kobayashi, R. Kutteh, Z. Lin, R. Littlefield,
    X. Long, B. Meng, T. Nakajima, S. Niu, L. Pollack, M. Rosing, G. Sandrone,
       M. Stave, H. Taylor, G. Thomas, J. H. van Lenthe, A. Wong, Z. Zhang.

 Total times  cpu:        1.2s     wall:        1.9s
