 argument  1 = ./PhoWat_SMD_HF.nw



============================== echo of input deck ==============================
# COSMO-SMD solvation results:
#             internal energy in gas <Psi(g)|H|Psi(g)> =     -1714.7064243007
#    total free energy in solvent including G(SMD-CDS) =     -1714.7183080244
#                       G(SMD-CDS) energy contribution =         0.0129170141 (    8.11 kcal/mol)
#     1 M fixed-concentration free energy of solvation =        -0.0118837237 (   -7.46 kcal/mol)
echo 'SMD/RHF/6-31G(d) solvation energy - 2,2-dichloroethenyl dimethyl phosphate in water'

start PhoWat_SMD_HF

geometry nocenter
   C       0.886551   -0.538770   -0.226736
   C       2.109190   -0.074290    0.021097
   CL      3.518080   -0.909728   -0.542886
   CL      2.401932    1.375529    0.919716
   C      -2.465672   -0.979038    2.029287
   C      -2.068974    2.143247   -0.946365
   P      -1.697440   -0.391916   -0.374109
   O      -0.220540    0.125132    0.263049
   O      -1.640803   -1.790632   -0.933197
   O      -2.118546    0.766386   -1.436114
   O      -2.666476   -0.071969    0.901438
   H      -3.288305   -0.770059    2.717206
   H      -2.507263   -2.021027    1.692938
   H      -1.504946   -0.768477    2.512545
   H      -1.056232    2.392251   -0.612402
   H      -2.345630    2.756441   -1.807206
   H      -2.787066    2.283774   -0.132406
   H       0.715195   -1.451011   -0.790243
symmetry c1
end

basis
 * library 6-31G*
end

dft
 XC HFexch
end

cosmo
 do_cosmo_smd true
end

task dft energy
================================================================================


                                         
                                         


             Northwest Computational Chemistry Package (NWChem) 7.0.1
             --------------------------------------------------------


                    Environmental Molecular Sciences Laboratory
                       Pacific Northwest National Laboratory
                                Richland, WA 99352

                              Copyright (c) 1994-2020
                       Pacific Northwest National Laboratory
                            Battelle Memorial Institute

             NWChem is an open-source computational chemistry package
                        distributed under the terms of the
                      Educational Community License (ECL) 2.0
             A copy of the license is included with this distribution
                              in the LICENSE.TXT file

                                  ACKNOWLEDGMENT
                                  --------------

            This software and its documentation were developed at the
            EMSL at Pacific Northwest National Laboratory, a multiprogram
            national laboratory, operated for the U.S. Department of Energy
            by Battelle under Contract Number DE-AC05-76RL01830. Support
            for this work was provided by the Department of Energy Office
            of Biological and Environmental Research, Office of Basic
            Energy Sciences, and the Office of Advanced Scientific Computing.


           Job information
           ---------------

    hostname        = WE41476
    program         = nwchem
    date            = Thu Nov 11 14:48:26 2021

    compiled        = Thu_Nov_11_13:51:38_2021
    source          = /Users/meji656/Sources/nwchem
    nwchem branch   = 7.0.0
    nwchem revision = nwchem_on_git-3012-g75ff49f32d
    ga revision     = 5.8.0
    use scalapack   = F
    input           = ./PhoWat_SMD_HF.nw
    prefix          = PhoWat_SMD_HF.
    data base       = ./PhoWat_SMD_HF.db
    status          = startup
    nproc           =        4
    time left       =     -1s



           Memory information
           ------------------

    heap     =   13107196 doubles =    100.0 Mbytes
    stack    =   13107201 doubles =    100.0 Mbytes
    global   =   26214400 doubles =    200.0 Mbytes (distinct from heap & stack)
    total    =   52428797 doubles =    400.0 Mbytes
    verify   = yes
    hardfail = no 


           Directory information
           ---------------------

  0 permanent = .
  0 scratch   = .




                                NWChem Input Module
                                -------------------



 Scaling coordinates for geometry "geometry" by  1.889725989
 (inverse scale =  0.529177249)

 Turning off AUTOSYM since
 SYMMETRY directive was detected!


          ------
          auto-z
          ------
  no constraints, skipping    0.0000000000000000     
  no constraints, skipping    0.0000000000000000     


                             Geometry "geometry" -> ""
                             -------------------------

 Output coordinates in angstroms (scale by  1.889725989 to convert to a.u.)

  No.       Tag          Charge          X              Y              Z
 ---- ---------------- ---------- -------------- -------------- --------------
    1 C                    6.0000     0.88655100    -0.53877000    -0.22673600
    2 C                    6.0000     2.10919000    -0.07429000     0.02109700
    3 CL                  17.0000     3.51808000    -0.90972800    -0.54288600
    4 CL                  17.0000     2.40193200     1.37552900     0.91971600
    5 C                    6.0000    -2.46567200    -0.97903800     2.02928700
    6 C                    6.0000    -2.06897400     2.14324700    -0.94636500
    7 P                   15.0000    -1.69744000    -0.39191600    -0.37410900
    8 O                    8.0000    -0.22054000     0.12513200     0.26304900
    9 O                    8.0000    -1.64080300    -1.79063200    -0.93319700
   10 O                    8.0000    -2.11854600     0.76638600    -1.43611400
   11 O                    8.0000    -2.66647600    -0.07196900     0.90143800
   12 H                    1.0000    -3.28830500    -0.77005900     2.71720600
   13 H                    1.0000    -2.50726300    -2.02102700     1.69293800
   14 H                    1.0000    -1.50494600    -0.76847700     2.51254500
   15 H                    1.0000    -1.05623200     2.39225100    -0.61240200
   16 H                    1.0000    -2.34563000     2.75644100    -1.80720600
   17 H                    1.0000    -2.78706600     2.28377400    -0.13240600
   18 H                    1.0000     0.71519500    -1.45101100    -0.79024300

      Atomic Mass 
      ----------- 

      C                 12.000000
      CL                34.968850
      P                 30.973760
      O                 15.994910
      H                  1.007825


 Effective nuclear repulsion energy (a.u.)     976.6110695226

            Nuclear Dipole moment (a.u.) 
            ----------------------------
        X                 Y               Z
 ---------------- ---------------- ----------------
     0.0000132281    -0.0000018897     0.0000245664



                                Z-matrix (autoz)
                                -------- 

 Units are Angstrom for bonds and degrees for angles

      Type          Name      I     J     K     L     M      Value
      ----------- --------  ----- ----- ----- ----- ----- ----------
    1 Stretch                  1     2                       1.33117
    2 Stretch                  1     8                       1.38069
    3 Stretch                  1    18                       1.08586
    4 Stretch                  2     3                       1.73234
    5 Stretch                  2     4                       1.73066
    6 Stretch                  5    11                       1.46121
    7 Stretch                  5    12                       1.09253
    8 Stretch                  5    13                       1.09572
    9 Stretch                  5    14                       1.09584
   10 Stretch                  6    10                       1.46221
   11 Stretch                  6    15                       1.09507
   12 Stretch                  6    16                       1.09252
   13 Stretch                  6    17                       1.09450
   14 Stretch                  7     8                       1.68954
   15 Stretch                  7     9                       1.50738
   16 Stretch                  7    10                       1.62691
   17 Stretch                  7    11                       1.63353
   18 Bend                     1     2     3               121.20455
   19 Bend                     1     2     4               122.97915
   20 Bend                     1     8     7               114.83395
   21 Bend                     2     1     8               120.17485
   22 Bend                     2     1    18               122.32323
   23 Bend                     3     2     4               115.81558
   24 Bend                     5    11     7               113.55334
   25 Bend                     6    10     7               116.29496
   26 Bend                     8     1    18               117.48537
   27 Bend                     8     7     9               113.01658
   28 Bend                     8     7    10               104.74710
   29 Bend                     8     7    11                99.44737
   30 Bend                     9     7    10               115.35658
   31 Bend                     9     7    11               119.58085
   32 Bend                    10     6    15               110.34136
   33 Bend                    10     6    16               104.83342
   34 Bend                    10     6    17               110.34932
   35 Bend                    10     7    11               102.51685
   36 Bend                    11     5    12               105.29514
   37 Bend                    11     5    13               110.37565
   38 Bend                    11     5    14               109.97351
   39 Bend                    12     5    13               110.27960
   40 Bend                    12     5    14               110.22415
   41 Bend                    13     5    14               110.57118
   42 Bend                    15     6    16               110.29563
   43 Bend                    15     6    17               110.53443
   44 Bend                    16     6    17               110.35122
   45 Torsion                  1     8     7     9          22.42815
   46 Torsion                  1     8     7    10        -103.93938
   47 Torsion                  1     8     7    11         150.33739
   48 Torsion                  2     1     8     7         168.48522
   49 Torsion                  3     2     1     8         178.28630
   50 Torsion                  3     2     1    18          -0.19617
   51 Torsion                  4     2     1     8          -1.39227
   52 Torsion                  4     2     1    18        -179.87473
   53 Torsion                  5    11     7     8         -71.50633
   54 Torsion                  5    11     7     9          51.87673
   55 Torsion                  5    11     7    10        -179.04063
   56 Torsion                  6    10     7     8         -50.03572
   57 Torsion                  6    10     7     9        -174.93700
   58 Torsion                  6    10     7    11          53.39690
   59 Torsion                  7     8     1    18         -12.96031
   60 Torsion                  7    10     6    15          59.19042
   61 Torsion                  7    10     6    16         177.93267
   62 Torsion                  7    10     6    17         -63.25544
   63 Torsion                  7    11     5    12        -169.85275
   64 Torsion                  7    11     5    13         -50.84772
   65 Torsion                  7    11     5    14          71.41488


            XYZ format geometry
            -------------------
    18
 geometry
 C                     0.88655100    -0.53877000    -0.22673600
 C                     2.10919000    -0.07429000     0.02109700
 CL                    3.51808000    -0.90972800    -0.54288600
 CL                    2.40193200     1.37552900     0.91971600
 C                    -2.46567200    -0.97903800     2.02928700
 C                    -2.06897400     2.14324700    -0.94636500
 P                    -1.69744000    -0.39191600    -0.37410900
 O                    -0.22054000     0.12513200     0.26304900
 O                    -1.64080300    -1.79063200    -0.93319700
 O                    -2.11854600     0.76638600    -1.43611400
 O                    -2.66647600    -0.07196900     0.90143800
 H                    -3.28830500    -0.77005900     2.71720600
 H                    -2.50726300    -2.02102700     1.69293800
 H                    -1.50494600    -0.76847700     2.51254500
 H                    -1.05623200     2.39225100    -0.61240200
 H                    -2.34563000     2.75644100    -1.80720600
 H                    -2.78706600     2.28377400    -0.13240600
 H                     0.71519500    -1.45101100    -0.79024300

 ==============================================================================
                                internuclear distances
 ------------------------------------------------------------------------------
       center one      |      center two      | atomic units |  angstroms
 ------------------------------------------------------------------------------
    2 C                |   1 C                |     2.51554  |     1.33117
    3 CL               |   2 C                |     3.27365  |     1.73234
    4 CL               |   2 C                |     3.27048  |     1.73066
    8 O                |   1 C                |     2.60913  |     1.38069
    8 O                |   7 P                |     3.19277  |     1.68954
    9 O                |   7 P                |     2.84853  |     1.50738
   10 O                |   6 C                |     2.76318  |     1.46221
   10 O                |   7 P                |     3.07442  |     1.62691
   11 O                |   5 C                |     2.76129  |     1.46121
   11 O                |   7 P                |     3.08692  |     1.63353
   12 H                |   5 C                |     2.06459  |     1.09253
   13 H                |   5 C                |     2.07061  |     1.09572
   14 H                |   5 C                |     2.07084  |     1.09584
   15 H                |   6 C                |     2.06938  |     1.09507
   16 H                |   6 C                |     2.06456  |     1.09252
   17 H                |   6 C                |     2.06831  |     1.09450
   18 H                |   1 C                |     2.05197  |     1.08586
 ------------------------------------------------------------------------------
                         number of included internuclear distances:         17
 ==============================================================================



 ==============================================================================
                                 internuclear angles
 ------------------------------------------------------------------------------
        center 1       |       center 2       |       center 3       |  degrees
 ------------------------------------------------------------------------------
    2 C                |   1 C                |   8 O                |   120.17
    2 C                |   1 C                |  18 H                |   122.32
    8 O                |   1 C                |  18 H                |   117.49
    1 C                |   2 C                |   3 CL               |   121.20
    1 C                |   2 C                |   4 CL               |   122.98
    3 CL               |   2 C                |   4 CL               |   115.82
   11 O                |   5 C                |  12 H                |   105.30
   11 O                |   5 C                |  13 H                |   110.38
   11 O                |   5 C                |  14 H                |   109.97
   12 H                |   5 C                |  13 H                |   110.28
   12 H                |   5 C                |  14 H                |   110.22
   13 H                |   5 C                |  14 H                |   110.57
   10 O                |   6 C                |  15 H                |   110.34
   10 O                |   6 C                |  16 H                |   104.83
   10 O                |   6 C                |  17 H                |   110.35
   15 H                |   6 C                |  16 H                |   110.30
   15 H                |   6 C                |  17 H                |   110.53
   16 H                |   6 C                |  17 H                |   110.35
    8 O                |   7 P                |   9 O                |   113.02
    8 O                |   7 P                |  10 O                |   104.75
    8 O                |   7 P                |  11 O                |    99.45
    9 O                |   7 P                |  10 O                |   115.36
    9 O                |   7 P                |  11 O                |   119.58
   10 O                |   7 P                |  11 O                |   102.52
    1 C                |   8 O                |   7 P                |   114.83
    6 C                |  10 O                |   7 P                |   116.29
    5 C                |  11 O                |   7 P                |   113.55
 ------------------------------------------------------------------------------
                            number of included internuclear angles:         27
 ==============================================================================





 Summary of "ao basis" -> "" (cartesian)
 ------------------------------------------------------------------------------
       Tag                 Description            Shells   Functions and Types
 ---------------- ------------------------------  ------  ---------------------
 *                           6-31G*                   on all atoms 


  xc_inp: hfexch multiplicative factor not found.

                                 NWChem DFT Module
                                 -----------------


                      Basis "ao basis" -> "ao basis" (cartesian)
                      -----
  C (Carbon)
  ----------
            Exponent  Coefficients 
       -------------- ---------------------------------------------------------
  1 S  3.04752490E+03  0.001835
  1 S  4.57369510E+02  0.014037
  1 S  1.03948690E+02  0.068843
  1 S  2.92101550E+01  0.232184
  1 S  9.28666300E+00  0.467941
  1 S  3.16392700E+00  0.362312

  2 S  7.86827240E+00 -0.119332
  2 S  1.88128850E+00 -0.160854
  2 S  5.44249300E-01  1.143456

  3 P  7.86827240E+00  0.068999
  3 P  1.88128850E+00  0.316424
  3 P  5.44249300E-01  0.744308

  4 S  1.68714400E-01  1.000000

  5 P  1.68714400E-01  1.000000

  6 D  8.00000000E-01  1.000000

  CL (Chlorine)
  -------------
            Exponent  Coefficients 
       -------------- ---------------------------------------------------------
  1 S  2.51801000E+04  0.001833
  1 S  3.78035000E+03  0.014034
  1 S  8.60474000E+02  0.069097
  1 S  2.42145000E+02  0.237452
  1 S  7.73349000E+01  0.483034
  1 S  2.62470000E+01  0.339856

  2 S  4.91765000E+02 -0.002297
  2 S  1.16984000E+02 -0.030714
  2 S  3.74153000E+01 -0.112528
  2 S  1.37834000E+01  0.045016
  2 S  5.45215000E+00  0.589353
  2 S  2.22588000E+00  0.465206

  3 P  4.91765000E+02  0.003989
  3 P  1.16984000E+02  0.030318
  3 P  3.74153000E+01  0.129880
  3 P  1.37834000E+01  0.327951
  3 P  5.45215000E+00  0.453527
  3 P  2.22588000E+00  0.252154

  4 S  3.18649000E+00 -0.251830
  4 S  1.14427000E+00  0.061589
  4 S  4.20377000E-01  1.060180

  5 P  3.18649000E+00 -0.014299
  5 P  1.14427000E+00  0.323572
  5 P  4.20377000E-01  0.743507

  6 S  1.42657000E-01  1.000000

  7 P  1.42657000E-01  1.000000

  8 D  7.50000000E-01  1.000000

  P (Phosphorous)
  ---------------
            Exponent  Coefficients 
       -------------- ---------------------------------------------------------
  1 S  1.94133000E+04  0.001852
  1 S  2.90942000E+03  0.014206
  1 S  6.61364000E+02  0.070000
  1 S  1.85759000E+02  0.240079
  1 S  5.91943000E+01  0.484762
  1 S  2.00310000E+01  0.335200

  2 S  3.39478000E+02 -0.002782
  2 S  8.10101000E+01 -0.036050
  2 S  2.58780000E+01 -0.116631
  2 S  9.45221000E+00  0.096833
  2 S  3.66566000E+00  0.614418
  2 S  1.46746000E+00  0.403798

  3 P  3.39478000E+02  0.004565
  3 P  8.10101000E+01  0.033694
  3 P  2.58780000E+01  0.139755
  3 P  9.45221000E+00  0.339362
  3 P  3.66566000E+00  0.450921
  3 P  1.46746000E+00  0.238586

  4 S  2.15623000E+00 -0.252923
  4 S  7.48997000E-01  0.032852
  4 S  2.83145000E-01  1.081250

  5 P  2.15623000E+00 -0.017765
  5 P  7.48997000E-01  0.274058
  5 P  2.83145000E-01  0.785421

  6 S  9.98317000E-02  1.000000

  7 P  9.98317000E-02  1.000000

  8 D  5.50000000E-01  1.000000

  O (Oxygen)
  ----------
            Exponent  Coefficients 
       -------------- ---------------------------------------------------------
  1 S  5.48467170E+03  0.001831
  1 S  8.25234950E+02  0.013950
  1 S  1.88046960E+02  0.068445
  1 S  5.29645000E+01  0.232714
  1 S  1.68975700E+01  0.470193
  1 S  5.79963530E+00  0.358521

  2 S  1.55396160E+01 -0.110778
  2 S  3.59993360E+00 -0.148026
  2 S  1.01376180E+00  1.130767

  3 P  1.55396160E+01  0.070874
  3 P  3.59993360E+00  0.339753
  3 P  1.01376180E+00  0.727159

  4 S  2.70005800E-01  1.000000

  5 P  2.70005800E-01  1.000000

  6 D  8.00000000E-01  1.000000

  H (Hydrogen)
  ------------
            Exponent  Coefficients 
       -------------- ---------------------------------------------------------
  1 S  1.87311370E+01  0.033495
  1 S  2.82539370E+00  0.234727
  1 S  6.40121700E-01  0.813757

  2 S  1.61277800E-01  1.000000



 Summary of "ao basis" -> "ao basis" (cartesian)
 ------------------------------------------------------------------------------
       Tag                 Description            Shells   Functions and Types
 ---------------- ------------------------------  ------  ---------------------
 C                           6-31G*                  6       15   3s2p1d
 CL                          6-31G*                  8       19   4s3p1d
 P                           6-31G*                  8       19   4s3p1d
 O                           6-31G*                  6       15   3s2p1d
 H                           6-31G*                  2        2   2s




 Summary of "ao basis" -> "ao basis" (cartesian)
 ------------------------------------------------------------------------------
       Tag                 Description            Shells   Functions and Types
 ---------------- ------------------------------  ------  ---------------------
 C                           6-31G*                  6       15   3s2p1d
 CL                          6-31G*                  8       19   4s3p1d
 P                           6-31G*                  8       19   4s3p1d
 O                           6-31G*                  6       15   3s2p1d
 H                           6-31G*                  2        2   2s



 solvent parameters
 solvname_short: h2o     
 solvname_long:  water                              
 dielec:       78.4000
 dielecinf:     1.7769
 aqueous SMD model solvent descriptors
 dielec:       78.4000
 sola:          0.8200

          ---------------
          -cosmo- solvent
          ---------------
 Cosmo: York-Karplus, doi: 10.1021/jp992097l
 dielectric constant -eps-     =  78.40
 screen = (eps-1)/(eps    )    =   0.98724
 surface charge correction     = lagrangian

 solvent accessible surface
 --------------------------

 ---------- ATOMIC COORDINATES (A.U.) ------------ VDWR(ANG.) --
     1    1.67533846   -1.01812767   -0.42846891     1.850
     2    3.98579116   -0.14038774    0.03986755     1.850
     3    6.64820721   -1.71913664   -1.02590578     2.380
     4    4.53899332    2.59937290    1.73801123     2.380
     5   -4.65944446   -1.85011355    3.83479638     1.850
     6   -3.90979394    4.05014956   -1.78837054     1.850
     7   -3.20769648   -0.74061385   -0.70696350     2.120
     8   -0.41676017    0.23646519    0.49709053     1.520
     9   -3.10066807   -3.38380383   -1.76348662     1.520
    10   -4.00347143    1.44825954   -2.71386195     1.520
    11   -5.03890900   -0.13600169    1.70347082     1.520
    12   -6.21399542   -1.45520051    5.13477479     1.200
    13   -4.73804005   -3.81918725    3.19918894     1.200
    14   -2.84393557   -1.45221096    4.74802158     1.200
    15   -1.99598906    4.52069889   -1.15727197     1.200
    16   -4.43259797    5.20891819   -3.41512414     1.200
    17   -5.26679105    4.31570708   -0.25021106     1.200
    18    1.35152258   -2.74201320   -1.49334273     1.200
 number of segments per atom =        128
 number of   points per atom =        128
 atom (   nspa,  nppa )
 ----------------------
    1 (     37,     0 )       0
    2 (     11,     0 )       0
    3 (     93,     0 )       0
    4 (     93,     0 )       0
    5 (     62,     0 )       0
    6 (     61,     0 )       0
    7 (     41,     0 )       0
    8 (     32,     0 )       0
    9 (     69,     0 )       0
   10 (     41,     0 )       0
   11 (     40,     0 )       0
   12 (     55,     0 )       0
   13 (     50,     0 )       0
   14 (     55,     0 )       0
   15 (     55,     0 )       0
   16 (     55,     0 )       0
   17 (     52,     0 )       0
   18 (     45,     0 )       0
 number of -cosmo- surface points =      947
 molecular surface =    236.568 angstrom**2
 molecular volume  =    151.262 angstrom**3
 -lineq- algorithm             =   0
 -bem- low  level              =   3
 -bem- from -octahedral-
 gaussian surface charge width =   4.50000
 degree of switching           =   1.00000
 switching function tolerance  =   0.00010
 atomic radii = 
 --------------
    1  6.000  1.850
    2  6.000  1.850
    3 17.000  2.380
    4 17.000  2.380
    5  6.000  1.850
    6  6.000  1.850
    7 15.000  2.120
    8  8.000  1.520
    9  8.000  1.520
   10  8.000  1.520
   11  8.000  1.520
   12  1.000  1.200
   13  1.000  1.200
   14  1.000  1.200
   15  1.000  1.200
   16  1.000  1.200
   17  1.000  1.200
   18  1.000  1.200
 ...... end of -cosmo- initialization ......


 G(SMD-CDS) energy (kcal/mol)  =     8.106
 SMD-CDS SASA (angstrom**2)    =   250.644

  Caching 1-el integrals 

            General Information
            -------------------
          SCF calculation type: DFT
          Wavefunction type:  closed shell.
          No. of atoms     :    18
          No. of electrons :   112
           Alpha electrons :    56
            Beta electrons :    56
          Charge           :     0
          Spin multiplicity:     1
          Use of symmetry is: off; symmetry adaption is: off
          Maximum number of iterations:  50
          AO basis - number of functions:   191
                     number of shells:    86
          Convergence on energy requested:  1.00D-06
          Convergence on density requested:  1.00D-05
          Convergence on gradient requested:  5.00D-04

              XC Information
              --------------
                     Hartree-Fock (Exact) Exchange  1.000          

          Convergence Information
          -----------------------
          Convergence aids based upon iterative change in 
          total energy or number of iterations. 
          Levelshifting, if invoked, occurs when the 
          HOMO/LUMO gap drops below (HL_TOL):  1.00D-02
          DIIS, if invoked, will attempt to extrapolate 
          using up to (NFOCK): 10 stored Fock matrices.

                    Damping( 0%)  Levelshifting(0.5)       DIIS
                  --------------- ------------------- ---------------
          dE  on:    start            ASAP                start   
          dE off:    2 iters         50 iters            50 iters 


      Screening Tolerance Information
      -------------------------------
          Density screening/tol_rho:  1.00D-10
          AO Gaussian exp screening on grid/accAOfunc:  14
          CD Gaussian exp screening on grid/accCDfunc:  20
          XC Gaussian exp screening on grid/accXCfunc:  20
          Schwarz screening/accCoul:  1.00D-08


      Superposition of Atomic Density Guess
      -------------------------------------

 Sum of atomic energies:       -1712.67734559

      Non-variational initial energy
      ------------------------------

 Total energy =   -1717.383224
 1-e energy   =   -4307.681149
 2-e energy   =    1613.686855
 HOMO         =      -0.213377
 LUMO         =       0.047882

   Time after variat. SCF:      1.9
   Time prior to 1st pass:      1.9

 Integral file          = ./PhoWat_SMD_HF.aoints.0
 Record size in doubles =  65536        No. of integs per rec  =  43688
 Max. records in memory =      0        Max. records in file   = 120052
 No. of bits per label  =      8        No. of bits per value  =     64


 #quartets = 3.717D+06 #integrals = 7.491D+07 #direct =  0.0% #cached =100.0%


File balance: exchanges=     3  moved=   373  time=   0.1


           Memory utilization after 1st SCF pass: 
           Heap Space remaining (MW):       13.10            13096636
          Stack Space remaining (MW):       13.11            13105700

   convergence    iter        energy       DeltaE   RMS-Dens  Diis-err    time
 ---------------- ----- ----------------- --------- --------- ---------  ------
     COSMO gas phase
 d= 0,ls=0.0,diis     1  -1714.4737927099 -2.69D+03  7.81D-03  1.85D+00     9.0
 d= 0,ls=0.0,diis     2  -1714.6281530652 -1.54D-01  3.41D-03  7.41D-01     9.7
 d= 0,ls=0.0,diis     3  -1714.7029692624 -7.48D-02  8.23D-04  2.10D-02    10.3
 d= 0,ls=0.0,diis     4  -1714.7060233142 -3.05D-03  2.65D-04  2.58D-03    11.0
 d= 0,ls=0.0,diis     5  -1714.7063782079 -3.55D-04  1.05D-04  2.03D-04    11.7
  Resetting Diis
 d= 0,ls=0.0,diis     6  -1714.7064169246 -3.87D-05  5.18D-05  1.99D-05    12.4
 d= 0,ls=0.0,diis     7  -1714.7064238521 -6.93D-06  1.14D-05  2.46D-06    13.1
 d= 0,ls=0.0,diis     8  -1714.7064243008 -4.49D-07  4.56D-06  4.92D-07    13.8

           Memory utilization after 1st SCF pass: 
           Heap Space remaining (MW):       13.09            13092820
          Stack Space remaining (MW):       13.11            13105700

   convergence    iter        energy       DeltaE   RMS-Dens  Diis-err    time
 ---------------- ----- ----------------- --------- --------- ---------  ------
     COSMO solvation phase
 d= 0,ls=0.0,diis     1  -1714.7152796010 -8.86D-03  8.59D-04  9.93D-03    16.1
 d= 0,ls=0.0,diis     2  -1714.7176560906 -2.38D-03  2.40D-04  2.48D-03    18.4
 d= 0,ls=0.0,diis     3  -1714.7180092513 -3.53D-04  1.58D-04  4.34D-04    20.6
 d= 0,ls=0.0,diis     4  -1714.7181215368 -1.12D-04  5.84D-05  4.29D-05    22.9
 d= 0,ls=0.0,diis     5  -1714.7181345281 -1.30D-05  1.46D-05  4.47D-06    25.2
 d= 0,ls=0.0,diis     6  -1714.7181357156 -1.19D-06  6.23D-06  7.06D-07    27.6
 d= 0,ls=0.0,diis     7  -1714.7181359387 -2.23D-07  3.04D-06  8.79D-08    29.6


         Total DFT energy =    -1714.718135938651
      One electron energy =    -4309.903427001249
           Coulomb energy =     1752.353242722824
    Exchange-Corr. energy =     -134.047550859789
 Nuclear repulsion energy =      976.611069522588

             COSMO energy =        0.268529676975

 Numeric. integr. density =        0.000000000000

     Total iterative time =     27.7s


                                COSMO-SMD solvation results
                                ---------------------------
 Reference for the SMD model:
 Marenich, A. V.; Cramer, C. J.; Truhlar, D. G. J. Phys. Chem. B 2009, 113, 6378

             internal energy in gas <Psi(g)|H|Psi(g)> =     -1714.706424300823
         internal energy in solvent <Psi(s)|H|Psi(s)> =     -1714.703056061383
                               delta internal energy  =         0.003368239440 (    2.11 kcal/mol)
   total free energy in solvent <Psi(s)|H+V/2|Psi(s)> =     -1714.731052952785
 polarization energy contribution <Psi(s)|V/2|Psi(s)> =        -0.027996891402 (  -17.57 kcal/mol)
    total free energy in solvent including G(SMD-CDS) =     -1714.718135938651
                       G(SMD-CDS) energy contribution =         0.012917014134 (    8.11 kcal/mol)
     1 M fixed-concentration free energy of solvation =        -0.011711637828 (   -7.35 kcal/mol)

                       DFT Final Molecular Orbital Analysis
                       ------------------------------------

 Vector    1  Occ=2.000000D+00  E=-1.048556D+02
              MO Center=  3.5D+00, -9.1D-01, -5.4D-01, r^2= 3.1D-03
   Bfn.  Coefficient  Atom+Function         Bfn.  Coefficient  Atom+Function  
  ----- ------------  ---------------      ----- ------------  ---------------
    31      0.996117   3 Cl s         

 Vector    2  Occ=2.000000D+00  E=-1.048545D+02
              MO Center=  2.4D+00,  1.4D+00,  9.2D-01, r^2= 3.1D-03
   Bfn.  Coefficient  Atom+Function         Bfn.  Coefficient  Atom+Function  
  ----- ------------  ---------------      ----- ------------  ---------------
    50      0.996117   4 Cl s         

 Vector    3  Occ=2.000000D+00  E=-8.016374D+01
              MO Center= -1.7D+00, -3.9D-01, -3.7D-01, r^2= 4.1D-03
   Bfn.  Coefficient  Atom+Function         Bfn.  Coefficient  Atom+Function  
  ----- ------------  ---------------      ----- ------------  ---------------
    99      0.996428   7 P  s         

 Vector    4  Occ=2.000000D+00  E=-2.065101D+01
              MO Center= -2.2D-01,  1.3D-01,  2.6D-01, r^2= 1.5D-02
   Bfn.  Coefficient  Atom+Function         Bfn.  Coefficient  Atom+Function  
  ----- ------------  ---------------      ----- ------------  ---------------
   118      0.994626   8 O  s         

 Vector    5  Occ=2.000000D+00  E=-2.062875D+01
              MO Center= -2.1D+00,  7.7D-01, -1.4D+00, r^2= 1.8D-02
   Bfn.  Coefficient  Atom+Function         Bfn.  Coefficient  Atom+Function  
  ----- ------------  ---------------      ----- ------------  ---------------
   148      0.994433  10 O  s         

 Vector    6  Occ=2.000000D+00  E=-2.062842D+01
              MO Center= -2.7D+00, -7.2D-02,  9.0D-01, r^2= 1.8D-02
   Bfn.  Coefficient  Atom+Function         Bfn.  Coefficient  Atom+Function  
  ----- ------------  ---------------      ----- ------------  ---------------
   163      0.994436  11 O  s         

 Vector    7  Occ=2.000000D+00  E=-2.057118D+01
              MO Center= -1.6D+00, -1.8D+00, -9.3D-01, r^2= 1.5D-02
   Bfn.  Coefficient  Atom+Function         Bfn.  Coefficient  Atom+Function  
  ----- ------------  ---------------      ----- ------------  ---------------
   133      0.994684   9 O  s         

 Vector    8  Occ=2.000000D+00  E=-1.136129D+01
              MO Center=  2.1D+00, -7.5D-02,  2.1D-02, r^2= 3.1D-02
   Bfn.  Coefficient  Atom+Function         Bfn.  Coefficient  Atom+Function  
  ----- ------------  ---------------      ----- ------------  ---------------
    16      0.994785   2 C  s                 1      0.044138   1 C  s         
    17      0.027073   2 C  s         

 Vector    9  Occ=2.000000D+00  E=-1.134254D+01
              MO Center=  8.9D-01, -5.4D-01, -2.3D-01, r^2= 3.1D-02
   Bfn.  Coefficient  Atom+Function         Bfn.  Coefficient  Atom+Function  
  ----- ------------  ---------------      ----- ------------  ---------------
     1      0.994755   1 C  s                16     -0.044776   2 C  s         
     2      0.026823   1 C  s         

 Vector   10  Occ=2.000000D+00  E=-1.129393D+01
              MO Center= -2.5D+00, -9.8D-01,  2.0D+00, r^2= 2.8D-02
   Bfn.  Coefficient  Atom+Function         Bfn.  Coefficient  Atom+Function  
  ----- ------------  ---------------      ----- ------------  ---------------
    69      0.995813   5 C  s                70      0.027472   5 C  s         

 Vector   11  Occ=2.000000D+00  E=-1.129351D+01
              MO Center= -2.1D+00,  2.1D+00, -9.5D-01, r^2= 2.8D-02
   Bfn.  Coefficient  Atom+Function         Bfn.  Coefficient  Atom+Function  
  ----- ------------  ---------------      ----- ------------  ---------------
    84      0.995813   6 C  s                85      0.027469   6 C  s         

 Vector   12  Occ=2.000000D+00  E=-1.058879D+01
              MO Center=  3.5D+00, -9.1D-01, -5.4D-01, r^2= 6.5D-02
   Bfn.  Coefficient  Atom+Function         Bfn.  Coefficient  Atom+Function  
  ----- ------------  ---------------      ----- ------------  ---------------
    32      1.030591   3 Cl s                31     -0.286729   3 Cl s         
    36      0.026033   3 Cl s         

 Vector   13  Occ=2.000000D+00  E=-1.058759D+01
              MO Center=  2.4D+00,  1.4D+00,  9.2D-01, r^2= 6.5D-02
   Bfn.  Coefficient  Atom+Function         Bfn.  Coefficient  Atom+Function  
  ----- ------------  ---------------      ----- ------------  ---------------
    51      1.030587   4 Cl s                50     -0.286729   4 Cl s         
    55      0.026015   4 Cl s         

 Vector   14  Occ=2.000000D+00  E=-8.058281D+00
              MO Center=  3.5D+00, -9.1D-01, -5.4D-01, r^2= 5.7D-02
   Bfn.  Coefficient  Atom+Function         Bfn.  Coefficient  Atom+Function  
  ----- ------------  ---------------      ----- ------------  ---------------
    33      0.798336   3 Cl px               34     -0.489272   3 Cl py        
    35     -0.329665   3 Cl pz        

 Vector   15  Occ=2.000000D+00  E=-8.057079D+00
              MO Center=  2.4D+00,  1.4D+00,  9.2D-01, r^2= 5.7D-02
   Bfn.  Coefficient  Atom+Function         Bfn.  Coefficient  Atom+Function  
  ----- ------------  ---------------      ----- ------------  ---------------
    53      0.833551   4 Cl py               54      0.516286   4 Cl pz        
    52      0.155067   4 Cl px        

 Vector   16  Occ=2.000000D+00  E=-8.054705D+00
              MO Center=  3.5D+00, -9.1D-01, -5.4D-01, r^2= 5.7D-02
   Bfn.  Coefficient  Atom+Function         Bfn.  Coefficient  Atom+Function  
  ----- ------------  ---------------      ----- ------------  ---------------
    34      0.682172   3 Cl py               33      0.590069   3 Cl px        
    35      0.416654   3 Cl pz        

 Vector   17  Occ=2.000000D+00  E=-8.054543D+00
              MO Center=  3.5D+00, -9.1D-01, -5.4D-01, r^2= 5.7D-02
   Bfn.  Coefficient  Atom+Function         Bfn.  Coefficient  Atom+Function  
  ----- ------------  ---------------      ----- ------------  ---------------
    35      0.839506   3 Cl pz               34     -0.531077   3 Cl py        

 Vector   18  Occ=2.000000D+00  E=-8.053485D+00
              MO Center=  2.4D+00,  1.4D+00,  9.2D-01, r^2= 5.7D-02
   Bfn.  Coefficient  Atom+Function         Bfn.  Coefficient  Atom+Function  
  ----- ------------  ---------------      ----- ------------  ---------------
    52      0.980626   4 Cl px               54     -0.114128   4 Cl pz        
    53     -0.111804   4 Cl py        

 Vector   19  Occ=2.000000D+00  E=-8.053403D+00
              MO Center=  2.4D+00,  1.4D+00,  9.2D-01, r^2= 5.7D-02
   Bfn.  Coefficient  Atom+Function         Bfn.  Coefficient  Atom+Function  
  ----- ------------  ---------------      ----- ------------  ---------------
    54      0.840937   4 Cl pz               53     -0.527870   4 Cl py        
    52      0.037682   4 Cl px        

 Vector   20  Occ=2.000000D+00  E=-7.680985D+00
              MO Center= -1.7D+00, -3.9D-01, -3.7D-01, r^2= 8.8D-02
   Bfn.  Coefficient  Atom+Function         Bfn.  Coefficient  Atom+Function  
  ----- ------------  ---------------      ----- ------------  ---------------
   100      1.031272   7 P  s                99     -0.276189   7 P  s         

 Vector   21  Occ=2.000000D+00  E=-5.579581D+00
              MO Center= -1.7D+00, -3.9D-01, -3.7D-01, r^2= 8.2D-02
   Bfn.  Coefficient  Atom+Function         Bfn.  Coefficient  Atom+Function  
  ----- ------------  ---------------      ----- ------------  ---------------
   101      0.875169   7 P  px              103      0.470782   7 P  pz        
   102     -0.041544   7 P  py        

 Vector   22  Occ=2.000000D+00  E=-5.579302D+00
              MO Center= -1.7D+00, -3.9D-01, -3.7D-01, r^2= 8.2D-02
   Bfn.  Coefficient  Atom+Function         Bfn.  Coefficient  Atom+Function  
  ----- ------------  ---------------      ----- ------------  ---------------
   103      0.812968   7 P  pz              101     -0.453948   7 P  px        
   102     -0.349822   7 P  py        

 Vector   23  Occ=2.000000D+00  E=-5.578562D+00
              MO Center= -1.7D+00, -3.9D-01, -3.7D-01, r^2= 8.2D-02
   Bfn.  Coefficient  Atom+Function         Bfn.  Coefficient  Atom+Function  
  ----- ------------  ---------------      ----- ------------  ---------------
   102      0.930179   7 P  py              103      0.326757   7 P  pz        
   101     -0.131606   7 P  px        

 Vector   24  Occ=2.000000D+00  E=-1.469018D+00
              MO Center= -1.1D+00, -2.0D-03, -5.0D-02, r^2= 2.3D+00
   Bfn.  Coefficient  Atom+Function         Bfn.  Coefficient  Atom+Function  
  ----- ------------  ---------------      ----- ------------  ---------------
   123      0.338278   8 O  s               119      0.318658   8 O  s         
   104      0.234035   7 P  s               168      0.204383  11 O  s         
   164      0.188503  11 O  s               153      0.187190  10 O  s         
   149      0.184527  10 O  s               118     -0.146011   8 O  s         
   100     -0.126070   7 P  s               138      0.103076   9 O  s         

 Vector   25  Occ=2.000000D+00  E=-1.413691D+00
              MO Center= -1.3D+00,  1.5D-01, -8.0D-02, r^2= 2.8D+00
   Bfn.  Coefficient  Atom+Function         Bfn.  Coefficient  Atom+Function  
  ----- ------------  ---------------      ----- ------------  ---------------
   119      0.310565   8 O  s               123      0.306346   8 O  s         
   149     -0.243747  10 O  s               153     -0.240854  10 O  s         
   168     -0.232029  11 O  s               164     -0.230059  11 O  s         
   118     -0.138023   8 O  s               148      0.109306  10 O  s         
     2      0.104649   1 C  s               163      0.103535  11 O  s         

 Vector   26  Occ=2.000000D+00  E=-1.390603D+00
              MO Center= -2.3D+00,  3.0D-01, -1.5D-01, r^2= 2.2D+00
   Bfn.  Coefficient  Atom+Function         Bfn.  Coefficient  Atom+Function  
  ----- ------------  ---------------      ----- ------------  ---------------
   164     -0.334183  11 O  s               149      0.328855  10 O  s         
   153      0.324820  10 O  s               168     -0.323574  11 O  s         
   163      0.148435  11 O  s               148     -0.146728  10 O  s         
   107     -0.111866   7 P  pz               70     -0.082320   5 C  s         
    85      0.076812   6 C  s               103      0.058193   7 P  pz        

 Vector   27  Occ=2.000000D+00  E=-1.329589D+00
              MO Center= -1.7D+00, -1.4D+00, -7.8D-01, r^2= 1.1D+00
   Bfn.  Coefficient  Atom+Function         Bfn.  Coefficient  Atom+Function  
  ----- ------------  ---------------      ----- ------------  ---------------
   134      0.443278   9 O  s               138      0.425434   9 O  s         
   133     -0.200425   9 O  s               106     -0.179900   7 P  py        
   104      0.157230   7 P  s               164     -0.093885  11 O  s         
   149     -0.091466  10 O  s               136      0.090240   9 O  py        
   102      0.089309   7 P  py              168     -0.082828  11 O  s         

 Vector   28  Occ=2.000000D+00  E=-1.216697D+00
              MO Center=  2.5D+00,  5.1D-02,  8.9D-02, r^2= 2.2D+00
   Bfn.  Coefficient  Atom+Function         Bfn.  Coefficient  Atom+Function  
  ----- ------------  ---------------      ----- ------------  ---------------
    36      0.387840   3 Cl s                55      0.373553   4 Cl s         
    17      0.242710   2 C  s                32     -0.199732   3 Cl s         
    21      0.193302   2 C  s                51     -0.192212   4 Cl s         
    40      0.129906   3 Cl s                16     -0.126072   2 C  s         
    59      0.120936   4 Cl s                 2      0.096268   1 C  s         

 Vector   29  Occ=2.000000D+00  E=-1.117017D+00
              MO Center=  2.8D+00,  2.3D-01,  1.9D-01, r^2= 2.7D+00
   Bfn.  Coefficient  Atom+Function         Bfn.  Coefficient  Atom+Function  
  ----- ------------  ---------------      ----- ------------  ---------------
    55     -0.515784   4 Cl s                36      0.494798   3 Cl s         
    51      0.261421   4 Cl s                32     -0.250915   3 Cl s         
    59     -0.211341   4 Cl s                40      0.204725   3 Cl s         
    19     -0.117461   2 C  py               20     -0.075070   2 C  pz        
    50     -0.057385   4 Cl s                31      0.055058   3 Cl s         

 Vector   30  Occ=2.000000D+00  E=-1.022032D+00
              MO Center=  1.3D+00, -2.1D-01, -2.9D-02, r^2= 3.5D+00
   Bfn.  Coefficient  Atom+Function         Bfn.  Coefficient  Atom+Function  
  ----- ------------  ---------------      ----- ------------  ---------------
     2      0.296509   1 C  s                36     -0.265366   3 Cl s         
    55     -0.244186   4 Cl s                18     -0.195091   2 C  px        
     6      0.167625   1 C  s                21      0.163542   2 C  s         
   120      0.163122   8 O  px               17      0.156664   2 C  s         
     1     -0.145964   1 C  s                32      0.132365   3 Cl s         

 Vector   31  Occ=2.000000D+00  E=-9.682284D-01
              MO Center= -2.0D+00,  4.5D-01,  2.3D-01, r^2= 5.8D+00
   Bfn.  Coefficient  Atom+Function         Bfn.  Coefficient  Atom+Function  
  ----- ------------  ---------------      ----- ------------  ---------------
    85      0.234646   6 C  s                70      0.225599   5 C  s         
    89      0.209184   6 C  s               104     -0.206059   7 P  s         
    74      0.204721   5 C  s               151      0.179435  10 O  py        
   167      0.158303  11 O  pz               84     -0.120618   6 C  s         
    69     -0.116058   5 C  s               155      0.102630  10 O  py        

 Vector   32  Occ=2.000000D+00  E=-9.487038D-01
              MO Center= -2.3D+00,  5.3D-01,  4.1D-01, r^2= 5.4D+00
   Bfn.  Coefficient  Atom+Function         Bfn.  Coefficient  Atom+Function  
  ----- ------------  ---------------      ----- ------------  ---------------
    70      0.244678   5 C  s                85     -0.242637   6 C  s         
    89     -0.239691   6 C  s                74      0.238304   5 C  s         
   153      0.150717  10 O  s               151     -0.149055  10 O  py        
   167      0.135296  11 O  pz               69     -0.126717   5 C  s         
    84      0.125603   6 C  s               168     -0.120212  11 O  s         

 Vector   33  Occ=2.000000D+00  E=-8.336179D-01
              MO Center= -6.0D-01, -9.2D-02,  1.1D-01, r^2= 5.5D+00
   Bfn.  Coefficient  Atom+Function         Bfn.  Coefficient  Atom+Function  
  ----- ------------  ---------------      ----- ------------  ---------------
   104      0.330616   7 P  s               120     -0.294270   8 O  px        
   124     -0.189758   8 O  px                3      0.187800   1 C  px        
   168     -0.164277  11 O  s                21      0.149612   2 C  s         
    36     -0.149506   3 Cl s                17      0.141519   2 C  s         
   100     -0.141732   7 P  s                74      0.129191   5 C  s         

 Vector   34  Occ=2.000000D+00  E=-7.877652D-01
              MO Center=  6.3D-01, -3.3D-01, -1.2D-01, r^2= 3.6D+00
   Bfn.  Coefficient  Atom+Function         Bfn.  Coefficient  Atom+Function  
  ----- ------------  ---------------      ----- ------------  ---------------
   121      0.202339   8 O  py                4      0.198569   1 C  py        
   190     -0.189009  18 H  s                55     -0.180464   4 Cl s         
   123      0.163231   8 O  s                 2     -0.155009   1 C  s         
    17      0.155678   2 C  s                 3      0.153109   1 C  px        
   122      0.147051   8 O  pz               21      0.145175   2 C  s         

 Vector   35  Occ=2.000000D+00  E=-7.382314D-01
              MO Center= -1.2D+00, -2.0D-02, -7.7D-02, r^2= 5.6D+00
   Bfn.  Coefficient  Atom+Function         Bfn.  Coefficient  Atom+Function  
  ----- ------------  ---------------      ----- ------------  ---------------
   120     -0.257053   8 O  px              105      0.243759   7 P  px        
   167      0.208500  11 O  pz              151      0.174868  10 O  py        
   124     -0.165259   8 O  px              152     -0.150689  10 O  pz        
   104     -0.149235   7 P  s                 4     -0.137570   1 C  py        
   171      0.132872  11 O  pz               72      0.121250   5 C  py        

 Vector   36  Occ=2.000000D+00  E=-7.217642D-01
              MO Center= -1.9D+00,  2.0D-01,  3.0D-02, r^2= 3.7D+00
   Bfn.  Coefficient  Atom+Function         Bfn.  Coefficient  Atom+Function  
  ----- ------------  ---------------      ----- ------------  ---------------
   107      0.253398   7 P  pz              151      0.188323  10 O  py        
   167     -0.185633  11 O  pz              165      0.176950  11 O  px        
   122      0.159808   8 O  pz              150     -0.159925  10 O  px        
   106     -0.136303   7 P  py              166     -0.124709  11 O  py        
   168     -0.121006  11 O  s                88     -0.118335   6 C  pz        

 Vector   37  Occ=2.000000D+00  E=-6.904415D-01
              MO Center=  2.6D-01, -1.8D-02,  7.2D-02, r^2= 7.6D+00
   Bfn.  Coefficient  Atom+Function         Bfn.  Coefficient  Atom+Function  
  ----- ------------  ---------------      ----- ------------  ---------------
    57      0.210119   4 Cl py               18     -0.184600   2 C  px        
   121      0.169624   8 O  py              138      0.167521   9 O  s         
   136     -0.163623   9 O  py                3      0.157947   1 C  px        
   106      0.154988   7 P  py               38     -0.153353   3 Cl py        
    59      0.153917   4 Cl s               166      0.150906  11 O  py        

 Vector   38  Occ=2.000000D+00  E=-6.728585D-01
              MO Center= -8.0D-01,  3.0D-01, -1.3D-01, r^2= 8.0D+00
   Bfn.  Coefficient  Atom+Function         Bfn.  Coefficient  Atom+Function  
  ----- ------------  ---------------      ----- ------------  ---------------
   166      0.211210  11 O  py              150     -0.197011  10 O  px        
    18      0.179772   2 C  px              152      0.160840  10 O  pz        
   170      0.157886  11 O  py               86     -0.149814   6 C  px        
    73      0.144857   5 C  pz              154     -0.142192  10 O  px        
    57     -0.128037   4 Cl py               38      0.125634   3 Cl py        

 Vector   39  Occ=2.000000D+00  E=-6.554918D-01
              MO Center= -1.6D+00,  2.8D-01, -2.1D-01, r^2= 5.3D+00
   Bfn.  Coefficient  Atom+Function         Bfn.  Coefficient  Atom+Function  
  ----- ------------  ---------------      ----- ------------  ---------------
   151     -0.223062  10 O  py              122      0.218677   8 O  pz        
    87      0.175285   6 C  py              167      0.170120  11 O  pz        
   155     -0.165191  10 O  py              126      0.163001   8 O  pz        
    72      0.158043   5 C  py              136      0.146966   9 O  py        
   150     -0.143118  10 O  px              152     -0.131918  10 O  pz        

 Vector   40  Occ=2.000000D+00  E=-6.473519D-01
              MO Center= -1.5D+00, -2.8D-02,  7.1D-01, r^2= 6.0D+00
   Bfn.  Coefficient  Atom+Function         Bfn.  Coefficient  Atom+Function  
  ----- ------------  ---------------      ----- ------------  ---------------
   165      0.285728  11 O  px               71      0.234217   5 C  px        
   169      0.200915  11 O  px              150      0.184653  10 O  px        
   120      0.149003   8 O  px               86      0.136348   6 C  px        
   182      0.131958  14 H  s                57     -0.128379   4 Cl py        
   154      0.126339  10 O  px              123     -0.120308   8 O  s         

 Vector   41  Occ=2.000000D+00  E=-6.265172D-01
              MO Center= -4.1D-01, -1.7D-01, -2.6D-01, r^2= 7.5D+00
   Bfn.  Coefficient  Atom+Function         Bfn.  Coefficient  Atom+Function  
  ----- ------------  ---------------      ----- ------------  ---------------
   122      0.204579   8 O  pz              136     -0.195203   9 O  py        
   151     -0.187271  10 O  py               37     -0.175729   3 Cl px        
    18      0.162787   2 C  px                4     -0.155952   1 C  py        
   126      0.149863   8 O  pz              104     -0.143942   7 P  s         
    86      0.135681   6 C  px              106      0.134606   7 P  py        

 Vector   42  Occ=2.000000D+00  E=-6.194223D-01
              MO Center= -1.4D+00,  5.0D-01, -2.0D-01, r^2= 5.9D+00
   Bfn.  Coefficient  Atom+Function         Bfn.  Coefficient  Atom+Function  
  ----- ------------  ---------------      ----- ------------  ---------------
   152      0.247268  10 O  pz               88      0.185436   6 C  pz        
   122      0.183026   8 O  pz              156      0.183023  10 O  pz        
   167      0.176950  11 O  pz              166     -0.167516  11 O  py        
   121     -0.157855   8 O  py               73     -0.152682   5 C  pz        
    87     -0.148549   6 C  py              186     -0.139281  16 H  s         

 Vector   43  Occ=2.000000D+00  E=-6.118373D-01
              MO Center= -1.6D+00,  2.2D-01,  4.3D-01, r^2= 6.1D+00
   Bfn.  Coefficient  Atom+Function         Bfn.  Coefficient  Atom+Function  
  ----- ------------  ---------------      ----- ------------  ---------------
    73      0.204257   5 C  pz              122      0.192087   8 O  pz        
   166      0.190573  11 O  py               86      0.182680   6 C  px        
   150      0.169924  10 O  px              167     -0.164663  11 O  pz        
   170      0.143642  11 O  py              126      0.140306   8 O  pz        
   165     -0.140363  11 O  px              121     -0.133776   8 O  py        

 Vector   44  Occ=2.000000D+00  E=-5.938896D-01
              MO Center=  6.8D-01, -3.5D-01, -1.1D-01, r^2= 8.6D+00
   Bfn.  Coefficient  Atom+Function         Bfn.  Coefficient  Atom+Function  
  ----- ------------  ---------------      ----- ------------  ---------------
    37      0.291998   3 Cl px               57     -0.232968   4 Cl py        
   136     -0.231975   9 O  py              106      0.176155   7 P  py        
    40      0.147845   3 Cl s               120     -0.147578   8 O  px        
    20      0.145626   2 C  pz               19      0.143810   2 C  py        
   140     -0.141660   9 O  py               38     -0.138372   3 Cl py        

 Vector   45  Occ=2.000000D+00  E=-5.635828D-01
              MO Center=  7.8D-01, -1.4D-01, -6.1D-02, r^2= 5.4D+00
   Bfn.  Coefficient  Atom+Function         Bfn.  Coefficient  Atom+Function  
  ----- ------------  ---------------      ----- ------------  ---------------
    58      0.246886   4 Cl pz              121     -0.225497   8 O  py        
   122     -0.210112   8 O  pz               19     -0.195243   2 C  py        
     4      0.184706   1 C  py               37     -0.178414   3 Cl px        
   190     -0.172407  18 H  s               125     -0.168593   8 O  py        
     5      0.166032   1 C  pz               23     -0.164462   2 C  py        

 Vector   46  Occ=2.000000D+00  E=-5.529496D-01
              MO Center=  1.5D+00,  4.5D-02,  4.4D-02, r^2= 5.6D+00
   Bfn.  Coefficient  Atom+Function         Bfn.  Coefficient  Atom+Function  
  ----- ------------  ---------------      ----- ------------  ---------------
    39      0.309695   3 Cl pz              121      0.269117   8 O  py        
    57     -0.242331   4 Cl py               58      0.235754   4 Cl pz        
   125      0.208276   8 O  py               20      0.197808   2 C  pz        
    38     -0.170999   3 Cl py               43      0.150550   3 Cl pz        
    24      0.145091   2 C  pz              122     -0.129150   8 O  pz        

 Vector   47  Occ=2.000000D+00  E=-5.430612D-01
              MO Center= -2.3D+00, -4.7D-01,  6.0D-01, r^2= 5.0D+00
   Bfn.  Coefficient  Atom+Function         Bfn.  Coefficient  Atom+Function  
  ----- ------------  ---------------      ----- ------------  ---------------
    72      0.236297   5 C  py              166     -0.212799  11 O  py        
   135     -0.198377   9 O  px              152      0.170593  10 O  pz        
   170     -0.169752  11 O  py               71     -0.165351   5 C  px        
   180     -0.159963  13 H  s               136     -0.157492   9 O  py        
   139     -0.157208   9 O  px              178      0.151841  12 H  s         

 Vector   48  Occ=2.000000D+00  E=-5.273952D-01
              MO Center= -1.7D+00,  7.3D-01, -7.8D-01, r^2= 5.5D+00
   Bfn.  Coefficient  Atom+Function         Bfn.  Coefficient  Atom+Function  
  ----- ------------  ---------------      ----- ------------  ---------------
   152      0.297463  10 O  pz               88     -0.262538   6 C  pz        
   156      0.232443  10 O  pz              137     -0.196438   9 O  pz        
   122      0.161493   8 O  pz              186      0.161731  16 H  s         
   141     -0.156729   9 O  pz              107     -0.154331   7 P  pz        
   153     -0.145761  10 O  s               150      0.139699  10 O  px        

 Vector   49  Occ=2.000000D+00  E=-5.119376D-01
              MO Center= -2.0D+00, -5.6D-01,  6.6D-01, r^2= 4.5D+00
   Bfn.  Coefficient  Atom+Function         Bfn.  Coefficient  Atom+Function  
  ----- ------------  ---------------      ----- ------------  ---------------
   165      0.335207  11 O  px              135      0.279833   9 O  px        
   169      0.271185  11 O  px               71     -0.251018   5 C  px        
   139      0.213788   9 O  px              182     -0.155704  14 H  s         
   120      0.138949   8 O  px               75     -0.136653   5 C  px        
   178      0.130215  12 H  s               183     -0.130757  14 H  s         

 Vector   50  Occ=2.000000D+00  E=-5.070479D-01
              MO Center= -1.6D+00, -9.7D-01, -7.6D-01, r^2= 3.6D+00
   Bfn.  Coefficient  Atom+Function         Bfn.  Coefficient  Atom+Function  
  ----- ------------  ---------------      ----- ------------  ---------------
   137      0.424788   9 O  pz              141      0.336102   9 O  pz        
   135      0.245818   9 O  px              139      0.198115   9 O  px        
   136     -0.144044   9 O  py              121      0.132583   8 O  py        
   116     -0.127894   7 P  dyz             152      0.126649  10 O  pz        
   151     -0.119647  10 O  py              140     -0.112981   9 O  py        

 Vector   51  Occ=2.000000D+00  E=-5.002456D-01
              MO Center=  7.6D-02, -7.9D-02, -3.1D-01, r^2= 9.6D+00
   Bfn.  Coefficient  Atom+Function         Bfn.  Coefficient  Atom+Function  
  ----- ------------  ---------------      ----- ------------  ---------------
    56      0.318589   4 Cl px               37      0.252979   3 Cl px        
   150      0.234562  10 O  px              135     -0.224054   9 O  px        
   137      0.209890   9 O  pz              154      0.197800  10 O  px        
    38      0.187730   3 Cl py              139     -0.184667   9 O  px        
     6      0.178529   1 C  s                60      0.169030   4 Cl px        

 Vector   52  Occ=2.000000D+00  E=-4.954365D-01
              MO Center= -8.8D-01,  6.9D-01, -3.4D-01, r^2= 8.5D+00
   Bfn.  Coefficient  Atom+Function         Bfn.  Coefficient  Atom+Function  
  ----- ------------  ---------------      ----- ------------  ---------------
   150      0.351952  10 O  px              154      0.297173  10 O  px        
    56     -0.232444   4 Cl px               86     -0.216355   6 C  px        
    37     -0.188975   3 Cl px              188      0.143307  17 H  s         
   166     -0.129553  11 O  py              184     -0.129324  15 H  s         
    60     -0.124952   4 Cl px               39     -0.123868   3 Cl pz        

 Vector   53  Occ=2.000000D+00  E=-4.918872D-01
              MO Center= -5.1D-01, -5.5D-01,  4.2D-01, r^2= 9.2D+00
   Bfn.  Coefficient  Atom+Function         Bfn.  Coefficient  Atom+Function  
  ----- ------------  ---------------      ----- ------------  ---------------
   135      0.262654   9 O  px              166     -0.260057  11 O  py        
    56      0.253091   4 Cl px               37      0.225418   3 Cl px        
   139      0.215533   9 O  px              170     -0.214349  11 O  py        
    38      0.183202   3 Cl py              165     -0.173652  11 O  px        
   167     -0.168026  11 O  pz              169     -0.149178  11 O  px        

 Vector   54  Occ=2.000000D+00  E=-4.830357D-01
              MO Center=  2.9D+00,  3.0D-01,  2.3D-01, r^2= 3.4D+00
   Bfn.  Coefficient  Atom+Function         Bfn.  Coefficient  Atom+Function  
  ----- ------------  ---------------      ----- ------------  ---------------
    58     -0.456224   4 Cl pz               39      0.428847   3 Cl pz        
    57      0.283930   4 Cl py               38     -0.270004   3 Cl py        
    62     -0.253239   4 Cl pz               43      0.238762   3 Cl pz        
    54      0.175319   4 Cl pz               35     -0.164706   3 Cl pz        
    61      0.157858   4 Cl py               42     -0.150351   3 Cl py        

 Vector   55  Occ=2.000000D+00  E=-4.628470D-01
              MO Center=  2.8D+00,  2.8D-01,  2.2D-01, r^2= 3.7D+00
   Bfn.  Coefficient  Atom+Function         Bfn.  Coefficient  Atom+Function  
  ----- ------------  ---------------      ----- ------------  ---------------
    56      0.510006   4 Cl px               38     -0.413245   3 Cl py        
    60      0.288030   4 Cl px               39     -0.252406   3 Cl pz        
    42     -0.224628   3 Cl py               52     -0.194993   4 Cl px        
    57     -0.179609   4 Cl py               37     -0.177945   3 Cl px        
    34      0.157988   3 Cl py               43     -0.136561   3 Cl pz        

 Vector   56  Occ=2.000000D+00  E=-3.609456D-01
              MO Center=  1.8D+00, -1.1D-01,  3.4D-03, r^2= 3.1D+00
   Bfn.  Coefficient  Atom+Function         Bfn.  Coefficient  Atom+Function  
  ----- ------------  ---------------      ----- ------------  ---------------
    20      0.297589   2 C  pz                5      0.273640   1 C  pz        
    39     -0.265163   3 Cl pz               24      0.249971   2 C  pz        
    58     -0.251147   4 Cl pz                9      0.206679   1 C  pz        
    19     -0.185110   2 C  py               43     -0.185753   3 Cl pz        
    62     -0.184790   4 Cl pz              122     -0.177954   8 O  pz        

 Vector   57  Occ=0.000000D+00  E= 1.488749D-01
              MO Center=  1.4D+00, -3.0D-01, -1.4D-01, r^2= 2.7D+00
   Bfn.  Coefficient  Atom+Function         Bfn.  Coefficient  Atom+Function  
  ----- ------------  ---------------      ----- ------------  ---------------
     9      0.616738   1 C  pz               24     -0.618683   2 C  pz        
     8     -0.399551   1 C  py               23      0.362486   2 C  py        
     5      0.340181   1 C  pz               20     -0.322357   2 C  pz        
   126     -0.220303   8 O  pz                4     -0.218861   1 C  py        
    19      0.194129   2 C  py               43      0.169698   3 Cl pz        

 Vector   58  Occ=0.000000D+00  E= 1.639226D-01
              MO Center=  2.8D+00,  2.8D-02,  6.5D-02, r^2= 4.4D+00
   Bfn.  Coefficient  Atom+Function         Bfn.  Coefficient  Atom+Function  
  ----- ------------  ---------------      ----- ------------  ---------------
    21      1.486192   2 C  s                22      0.794524   2 C  px        
    40     -0.678420   3 Cl s                41      0.662196   3 Cl px        
    61      0.625526   4 Cl py               59     -0.547469   4 Cl s         
    42     -0.502538   3 Cl py               62      0.390286   4 Cl pz        
    43     -0.335332   3 Cl pz               18      0.265333   2 C  px        

 Vector   59  Occ=0.000000D+00  E= 1.816953D-01
              MO Center= -1.3D-01, -1.1D-01, -5.3D-02, r^2= 7.9D+00
   Bfn.  Coefficient  Atom+Function         Bfn.  Coefficient  Atom+Function  
  ----- ------------  ---------------      ----- ------------  ---------------
   108      1.110276   7 P  s               123     -0.566540   8 O  s         
   153     -0.532309  10 O  s               138     -0.527745   9 O  s         
    23      0.511510   2 C  py               61      0.470862   4 Cl py        
   168     -0.439219  11 O  s               191      0.419603  18 H  s         
    59     -0.409726   4 Cl s                62      0.306445   4 Cl pz        

 Vector   60  Occ=0.000000D+00  E= 2.125598D-01
              MO Center= -3.1D-01, -9.3D-02, -2.2D-01, r^2= 1.0D+01
   Bfn.  Coefficient  Atom+Function         Bfn.  Coefficient  Atom+Function  
  ----- ------------  ---------------      ----- ------------  ---------------
   108      0.773999   7 P  s                23     -0.699712   2 C  py        
   153     -0.634699  10 O  s                59      0.526663   4 Cl s         
    41      0.515175   3 Cl px               61     -0.515881   4 Cl py        
    40     -0.473844   3 Cl s                24     -0.469447   2 C  pz        
   109     -0.466063   7 P  px              138     -0.456325   9 O  s         

 Vector   61  Occ=0.000000D+00  E= 2.413839D-01
              MO Center= -1.1D+00, -1.0D-01,  5.1D-01, r^2= 8.9D+00
   Bfn.  Coefficient  Atom+Function         Bfn.  Coefficient  Atom+Function  
  ----- ------------  ---------------      ----- ------------  ---------------
    74      1.109251   5 C  s                89      0.961766   6 C  s         
   179     -0.754973  12 H  s               123      0.634610   8 O  s         
   185     -0.619120  15 H  s               109     -0.577380   7 P  px        
   183     -0.577799  14 H  s                 6     -0.505732   1 C  s         
   111     -0.450038   7 P  pz              108     -0.437135   7 P  s         

 Vector   62  Occ=0.000000D+00  E= 2.465290D-01
              MO Center= -2.0D+00,  3.3D-01, -4.8D-02, r^2= 7.2D+00
   Bfn.  Coefficient  Atom+Function         Bfn.  Coefficient  Atom+Function  
  ----- ------------  ---------------      ----- ------------  ---------------
    89      1.275265   6 C  s               168      0.913449  11 O  s         
    74     -0.848887   5 C  s               187     -0.739466  16 H  s         
   189     -0.698020  17 H  s               110     -0.628952   7 P  py        
   138     -0.564728   9 O  s               109      0.556010   7 P  px        
   111     -0.440573   7 P  pz              181      0.399568  13 H  s         

 Vector   63  Occ=0.000000D+00  E= 2.485752D-01
              MO Center= -1.5D+00, -5.1D-02, -2.5D-01, r^2= 6.2D+00
   Bfn.  Coefficient  Atom+Function         Bfn.  Coefficient  Atom+Function  
  ----- ------------  ---------------      ----- ------------  ---------------
   153     -0.708365  10 O  s                74      0.693620   5 C  s         
   110      0.556320   7 P  py              111     -0.543419   7 P  pz        
   179     -0.524759  12 H  s               185      0.520331  15 H  s         
   109      0.492944   7 P  px              123     -0.455801   8 O  s         
    91     -0.402895   6 C  py                6      0.389151   1 C  s         

 Vector   64  Occ=0.000000D+00  E= 2.852222D-01
              MO Center= -1.3D+00, -9.4D-02,  8.3D-01, r^2= 7.9D+00
   Bfn.  Coefficient  Atom+Function         Bfn.  Coefficient  Atom+Function  
  ----- ------------  ---------------      ----- ------------  ---------------
    74      1.443643   5 C  s               183     -1.293742  14 H  s         
    89     -1.130760   6 C  s               185      0.800359  15 H  s         
   189      0.692299  17 H  s               181     -0.687753  13 H  s         
   191      0.677032  18 H  s                 6     -0.614352   1 C  s         
    75      0.609950   5 C  px              153      0.424161  10 O  s         

 Vector   65  Occ=0.000000D+00  E= 2.928684D-01
              MO Center= -1.8D+00,  1.8D-01,  4.9D-01, r^2= 8.5D+00
   Bfn.  Coefficient  Atom+Function         Bfn.  Coefficient  Atom+Function  
  ----- ------------  ---------------      ----- ------------  ---------------
    89      1.628861   6 C  s                74      1.324164   5 C  s         
   181     -0.962866  13 H  s               185     -0.900763  15 H  s         
   189     -0.801093  17 H  s               168     -0.595251  11 O  s         
    77     -0.508558   5 C  pz              183     -0.499226  14 H  s         
   187     -0.480838  16 H  s               109      0.343038   7 P  px        

 Vector   66  Occ=0.000000D+00  E= 3.114913D-01
              MO Center= -2.3D+00,  1.1D+00, -3.0D-02, r^2= 9.7D+00
   Bfn.  Coefficient  Atom+Function         Bfn.  Coefficient  Atom+Function  
  ----- ------------  ---------------      ----- ------------  ---------------
   187      1.412621  16 H  s               179      1.199344  12 H  s         
    91     -0.834741   6 C  py               75      0.703695   5 C  px        
    92      0.624323   6 C  pz              185     -0.557910  15 H  s         
    90      0.411276   6 C  px              181     -0.384386  13 H  s         
     6     -0.378595   1 C  s               183     -0.371592  14 H  s         

 Vector   67  Occ=0.000000D+00  E= 3.144948D-01
              MO Center= -1.6D+00,  1.9D-01,  8.1D-02, r^2= 1.2D+01
   Bfn.  Coefficient  Atom+Function         Bfn.  Coefficient  Atom+Function  
  ----- ------------  ---------------      ----- ------------  ---------------
   179      1.168173  12 H  s               191     -1.096344  18 H  s         
   187     -1.088861  16 H  s                92     -0.916958   6 C  pz        
   189      0.660722  17 H  s                75      0.653302   5 C  px        
     6      0.648896   1 C  s                 8     -0.560987   1 C  py        
     7     -0.443584   1 C  px              181     -0.400858  13 H  s         

 Vector   68  Occ=0.000000D+00  E= 3.247255D-01
              MO Center= -1.2D+00, -6.9D-01,  6.6D-01, r^2= 9.1D+00
   Bfn.  Coefficient  Atom+Function         Bfn.  Coefficient  Atom+Function  
  ----- ------------  ---------------      ----- ------------  ---------------
   183      1.244587  14 H  s               191      1.218222  18 H  s         
   181     -0.889397  13 H  s                 6     -0.766181   1 C  s         
    77     -0.677392   5 C  pz              189      0.664388  17 H  s         
   187     -0.641820  16 H  s                76     -0.553654   5 C  py        
    92     -0.549266   6 C  pz               75     -0.522178   5 C  px        

 Vector   69  Occ=0.000000D+00  E= 3.428776D-01
              MO Center= -1.8D+00,  1.3D+00,  6.1D-02, r^2= 6.9D+00
   Bfn.  Coefficient  Atom+Function         Bfn.  Coefficient  Atom+Function  
  ----- ------------  ---------------      ----- ------------  ---------------
   189      1.389369  17 H  s               185     -1.315485  15 H  s         
    90      1.203054   6 C  px              191     -0.550867  18 H  s         
    77      0.542634   5 C  pz              179     -0.490323  12 H  s         
   168      0.427882  11 O  s               108      0.361512   7 P  s         
    21      0.304484   2 C  s                76     -0.288191   5 C  py        

 Vector   70  Occ=0.000000D+00  E= 3.484049D-01
              MO Center= -2.1D+00, -4.9D-01,  8.7D-01, r^2= 6.0D+00
   Bfn.  Coefficient  Atom+Function         Bfn.  Coefficient  Atom+Function  
  ----- ------------  ---------------      ----- ------------  ---------------
   181      1.190287  13 H  s                76      1.038764   5 C  py        
   185     -0.612848  15 H  s               183     -0.553458  14 H  s         
   171     -0.531817  11 O  pz              109      0.525488   7 P  px        
   111     -0.490746   7 P  pz              189      0.443752  17 H  s         
   179      0.439095  12 H  s                90      0.427292   6 C  px        

 Vector   71  Occ=0.000000D+00  E= 3.612712D-01
              MO Center= -1.9D+00,  4.4D-01, -4.8D-01, r^2= 7.9D+00
   Bfn.  Coefficient  Atom+Function         Bfn.  Coefficient  Atom+Function  
  ----- ------------  ---------------      ----- ------------  ---------------
   111      0.870487   7 P  pz              181      0.807324  13 H  s         
    91     -0.787951   6 C  py               92     -0.741391   6 C  pz        
     7      0.711661   1 C  px               89      0.703233   6 C  s         
   155     -0.694271  10 O  py               21     -0.607922   2 C  s         
   108     -0.577636   7 P  s                77      0.558576   5 C  pz        

 Vector   72  Occ=0.000000D+00  E= 3.788858D-01
              MO Center= -1.9D+00, -2.2D-01,  6.1D-01, r^2= 6.7D+00
   Bfn.  Coefficient  Atom+Function         Bfn.  Coefficient  Atom+Function  
  ----- ------------  ---------------      ----- ------------  ---------------
   110     -0.957631   7 P  py              179     -0.909049  12 H  s         
    74      0.874241   5 C  s                75     -0.652231   5 C  px        
   109      0.628475   7 P  px               91     -0.591045   6 C  py        
   171     -0.577481  11 O  pz              104     -0.550844   7 P  s         
   191     -0.512600  18 H  s                76      0.475019   5 C  py        

 Vector   73  Occ=0.000000D+00  E= 4.183855D-01
              MO Center=  6.5D-01, -3.1D-01, -1.7D-01, r^2= 6.8D+00
   Bfn.  Coefficient  Atom+Function         Bfn.  Coefficient  Atom+Function  
  ----- ------------  ---------------      ----- ------------  ---------------
     7      1.405220   1 C  px               23      1.235518   2 C  py        
   123      1.212002   8 O  s                 8     -1.146109   1 C  py        
   191     -1.120552  18 H  s                40      0.916711   3 Cl s         
     9     -0.812925   1 C  pz               59     -0.812851   4 Cl s         
    24      0.797935   2 C  pz               41     -0.730594   3 Cl px        

 Vector   74  Occ=0.000000D+00  E= 4.642196D-01
              MO Center=  1.5D+00, -1.1D-01, -2.2D-01, r^2= 7.3D+00
   Bfn.  Coefficient  Atom+Function         Bfn.  Coefficient  Atom+Function  
  ----- ------------  ---------------      ----- ------------  ---------------
     6      3.838725   1 C  s                21     -3.297039   2 C  s         
    22      3.010166   2 C  px                7      2.341080   1 C  px        
     8      1.138843   1 C  py               23      1.102205   2 C  py        
   111     -0.839854   7 P  pz               59     -0.771617   4 Cl s         
     9      0.694273   1 C  pz              109      0.611281   7 P  px        

 Vector   75  Occ=0.000000D+00  E= 4.733060D-01
              MO Center=  2.6D+00,  1.8D-01,  6.7D-02, r^2= 5.6D+00
   Bfn.  Coefficient  Atom+Function         Bfn.  Coefficient  Atom+Function  
  ----- ------------  ---------------      ----- ------------  ---------------
    21      1.334008   2 C  s                40     -1.318030   3 Cl s         
    59     -1.200171   4 Cl s                 6     -0.988332   1 C  s         
    36      0.858593   3 Cl s                55      0.811274   4 Cl s         
   108     -0.619668   7 P  s                 7     -0.447796   1 C  px        
   104      0.434613   7 P  s               111      0.277450   7 P  pz        

 Vector   76  Occ=0.000000D+00  E= 4.843725D-01
              MO Center= -2.2D+00, -3.1D-01, -5.3D-01, r^2= 4.2D+00
   Bfn.  Coefficient  Atom+Function         Bfn.  Coefficient  Atom+Function  
  ----- ------------  ---------------      ----- ------------  ---------------
   109      1.284023   7 P  px              108     -1.038863   7 P  s         
   105     -1.014736   7 P  px              104      0.755867   7 P  s         
    21     -0.567490   2 C  s                 6      0.499525   1 C  s         
   153      0.495167  10 O  s               107     -0.460772   7 P  pz        
   168      0.410769  11 O  s                 8      0.392579   1 C  py        

 Vector   77  Occ=0.000000D+00  E= 5.233281D-01
              MO Center= -4.2D-01, -1.4D-01, -6.3D-01, r^2= 6.6D+00
   Bfn.  Coefficient  Atom+Function         Bfn.  Coefficient  Atom+Function  
  ----- ------------  ---------------      ----- ------------  ---------------
     6      1.504689   1 C  s                22      1.164479   2 C  px        
   108     -1.128770   7 P  s               109     -0.985524   7 P  px        
    21     -0.940738   2 C  s               111      0.890767   7 P  pz        
   110     -0.857216   7 P  py              107     -0.769060   7 P  pz        
   105      0.674199   7 P  px                8      0.622714   1 C  py        

 Vector   78  Occ=0.000000D+00  E= 5.533205D-01
              MO Center= -8.5D-01,  1.6D-02,  2.9D-01, r^2= 7.3D+00
   Bfn.  Coefficient  Atom+Function         Bfn.  Coefficient  Atom+Function  
  ----- ------------  ---------------      ----- ------------  ---------------
   108      2.730994   7 P  s               111      1.433493   7 P  pz        
   104     -1.208297   7 P  s               110      0.726954   7 P  py        
   107     -0.681401   7 P  pz               77      0.644351   5 C  pz        
   123     -0.589058   8 O  s               168     -0.521764  11 O  s         
     7      0.474474   1 C  px               59     -0.453837   4 Cl s         

 Vector   79  Occ=0.000000D+00  E= 5.655802D-01
              MO Center=  2.4D+00,  3.5D-01,  2.8D-01, r^2= 6.9D+00
   Bfn.  Coefficient  Atom+Function         Bfn.  Coefficient  Atom+Function  
  ----- ------------  ---------------      ----- ------------  ---------------
    40      1.272555   3 Cl s                59     -1.223580   4 Cl s         
    55      0.780676   4 Cl s                36     -0.744020   3 Cl s         
    22     -0.596438   2 C  px               60      0.443725   4 Cl px        
     8     -0.424471   1 C  py               21      0.385227   2 C  s         
   191     -0.382237  18 H  s                57      0.303012   4 Cl py        

 Vector   80  Occ=0.000000D+00  E= 5.843793D-01
              MO Center= -4.6D-01, -3.0D-01,  2.4D-02, r^2= 8.4D+00
   Bfn.  Coefficient  Atom+Function         Bfn.  Coefficient  Atom+Function  
  ----- ------------  ---------------      ----- ------------  ---------------
   110      1.798712   7 P  py              106     -0.894062   7 P  py        
   138      0.694435   9 O  s                91      0.523542   6 C  py        
   168     -0.431041  11 O  s                76      0.405076   5 C  py        
    43     -0.402111   3 Cl pz              109     -0.399444   7 P  px        
   181      0.399748  13 H  s                 7     -0.393108   1 C  px        

 Vector   81  Occ=0.000000D+00  E= 5.952616D-01
              MO Center=  2.6D+00,  7.4D-02,  1.1D-01, r^2= 6.9D+00
   Bfn.  Coefficient  Atom+Function         Bfn.  Coefficient  Atom+Function  
  ----- ------------  ---------------      ----- ------------  ---------------
    43      0.697925   3 Cl pz              110      0.635436   7 P  py        
    39     -0.611232   3 Cl pz               62      0.576081   4 Cl pz        
    61     -0.564022   4 Cl py               42     -0.529123   3 Cl py        
    58     -0.529990   4 Cl pz               38      0.498617   3 Cl py        
    57      0.484883   4 Cl py              106     -0.302353   7 P  py        

 Vector   82  Occ=0.000000D+00  E= 6.052798D-01
[...]
   108     -0.375635   7 P  s                26     -0.325289   2 C  dxy       
   130      0.311188   8 O  dyy              29      0.305172   2 C  dyz       

 Vector  173  Occ=0.000000D+00  E= 2.873179D+00
              MO Center= -1.1D+00, -3.1D-02,  9.4D-03, r^2= 4.8D+00
   Bfn.  Coefficient  Atom+Function         Bfn.  Coefficient  Atom+Function  
  ----- ------------  ---------------      ----- ------------  ---------------
   168      1.626570  11 O  s               153      1.247228  10 O  s         
   105      1.130135   7 P  px               21      0.954978   2 C  s         
   174     -0.870749  11 O  dxz             123     -0.850194   8 O  s         
     7     -0.778150   1 C  px              124      0.738618   8 O  px        
   114      0.730853   7 P  dxz               6     -0.684197   1 C  s         

 Vector  174  Occ=0.000000D+00  E= 2.926521D+00
              MO Center= -2.1D+00,  1.4D-01, -1.5D-01, r^2= 3.5D+00
   Bfn.  Coefficient  Atom+Function         Bfn.  Coefficient  Atom+Function  
  ----- ------------  ---------------      ----- ------------  ---------------
   168      2.167001  11 O  s               153     -1.535792  10 O  s         
   107     -1.216605   7 P  pz              161      0.993920  10 O  dyz       
   114      0.895262   7 P  dxz              74     -0.828195   5 C  s         
   174     -0.823428  11 O  dxz               6      0.803813   1 C  s         
   116     -0.798448   7 P  dyz              21     -0.738653   2 C  s         

 Vector  175  Occ=0.000000D+00  E= 2.997334D+00
              MO Center=  3.0D-01, -9.5D-02, -1.6D-01, r^2= 3.8D+00
   Bfn.  Coefficient  Atom+Function         Bfn.  Coefficient  Atom+Function  
  ----- ------------  ---------------      ----- ------------  ---------------
     6      3.141090   1 C  s               123     -2.335277   8 O  s         
    21     -2.206549   2 C  s               153      1.224187  10 O  s         
    22      1.150535   2 C  px               14      1.046307   1 C  dyz       
     8      0.999208   1 C  py              119      0.782758   8 O  s         
    25     -0.701500   2 C  dxx               9      0.600014   1 C  pz        

 Vector  176  Occ=0.000000D+00  E= 3.051450D+00
              MO Center= -1.9D+00,  1.9D-01, -5.6D-01, r^2= 4.6D+00
   Bfn.  Coefficient  Atom+Function         Bfn.  Coefficient  Atom+Function  
  ----- ------------  ---------------      ----- ------------  ---------------
   153      1.718206  10 O  s                89     -1.377244   6 C  s         
   138     -1.368521   9 O  s                 6     -1.124842   1 C  s         
   155      1.095625  10 O  py               74     -0.935605   5 C  s         
   108      0.889783   7 P  s               146     -0.809734   9 O  dyz       
    21      0.803696   2 C  s               106     -0.790346   7 P  py        

 Vector  177  Occ=0.000000D+00  E= 3.139927D+00
              MO Center= -1.6D+00, -4.4D-01,  5.6D-01, r^2= 5.0D+00
   Bfn.  Coefficient  Atom+Function         Bfn.  Coefficient  Atom+Function  
  ----- ------------  ---------------      ----- ------------  ---------------
    74      1.481075   5 C  s               171     -1.317224  11 O  pz        
    21      1.307110   2 C  s               176      1.304482  11 O  dyz       
     6     -1.296081   1 C  s               168     -1.086450  11 O  s         
     7     -0.991440   1 C  px               82     -0.994601   5 C  dyz       
    22     -0.894566   2 C  px              138     -0.822364   9 O  s         

 Vector  178  Occ=0.000000D+00  E= 3.162505D+00
              MO Center= -1.5D+00, -5.1D-01, -8.5D-01, r^2= 4.0D+00
   Bfn.  Coefficient  Atom+Function         Bfn.  Coefficient  Atom+Function  
  ----- ------------  ---------------      ----- ------------  ---------------
   138      2.047963   9 O  s               106      1.508746   7 P  py        
   140      1.188829   9 O  py               89     -1.071043   6 C  s         
   123     -1.052164   8 O  s               155      1.036483  10 O  py        
   161      1.007168  10 O  dyz             146      0.994400   9 O  dyz       
   116     -0.942015   7 P  dyz             145      0.780000   9 O  dyy       

 Vector  179  Occ=0.000000D+00  E= 3.194422D+00
              MO Center= -2.0D-02, -1.7D-01, -6.2D-02, r^2= 4.4D+00
   Bfn.  Coefficient  Atom+Function         Bfn.  Coefficient  Atom+Function  
  ----- ------------  ---------------      ----- ------------  ---------------
     7      1.552434   1 C  px              123      1.315672   8 O  s         
    21     -1.206129   2 C  s                11      1.141712   1 C  dxy       
    22      0.994336   2 C  px                6      0.830491   1 C  s         
    26     -0.834594   2 C  dxy             124      0.814010   8 O  px        
   155      0.713084  10 O  py                3      0.677768   1 C  px        

 Vector  180  Occ=0.000000D+00  E= 3.286306D+00
              MO Center=  5.4D-01, -2.5D-01, -2.7D-02, r^2= 2.2D+00
   Bfn.  Coefficient  Atom+Function         Bfn.  Coefficient  Atom+Function  
  ----- ------------  ---------------      ----- ------------  ---------------
     6      2.257064   1 C  s               123     -1.734484   8 O  s         
   124     -1.539199   8 O  px              128      1.302670   8 O  dxy       
   129      1.059517   8 O  dxz              21     -0.951096   2 C  s         
     8      0.867352   1 C  py               10      0.838114   1 C  dxx       
    11     -0.798112   1 C  dxy              26     -0.719159   2 C  dxy       

 Vector  181  Occ=0.000000D+00  E= 3.878686D+00
              MO Center= -1.7D+00, -3.9D-01, -3.7D-01, r^2= 1.3D+00
   Bfn.  Coefficient  Atom+Function         Bfn.  Coefficient  Atom+Function  
  ----- ------------  ---------------      ----- ------------  ---------------
   104      6.917042   7 P  s               115     -3.198664   7 P  dyy       
   117     -3.190217   7 P  dzz             112     -3.160036   7 P  dxx       
   100     -0.685639   7 P  s               138     -0.594434   9 O  s         
   123      0.504624   8 O  s               145      0.356585   9 O  dyy       
   174     -0.350056  11 O  dxz               7      0.341893   1 C  px        

 Vector  182  Occ=0.000000D+00  E= 4.179146D+00
              MO Center= -2.0D+00, -7.9D-02,  1.6D-01, r^2= 3.4D+00
   Bfn.  Coefficient  Atom+Function         Bfn.  Coefficient  Atom+Function  
  ----- ------------  ---------------      ----- ------------  ---------------
   168      3.611814  11 O  s               153     -2.094320  10 O  s         
   123     -2.001395   8 O  s               138      1.696126   9 O  s         
   175     -1.329038  11 O  dyy             172     -1.286414  11 O  dxx       
   177     -1.173551  11 O  dzz             157      0.797222  10 O  dxx       
   130      0.753736   8 O  dyy             132      0.717408   8 O  dzz       

 Vector  183  Occ=0.000000D+00  E= 4.294073D+00
              MO Center= -1.8D+00, -6.4D-01, -1.1D+00, r^2= 3.4D+00
   Bfn.  Coefficient  Atom+Function         Bfn.  Coefficient  Atom+Function  
  ----- ------------  ---------------      ----- ------------  ---------------
   138      4.447292   9 O  s               153      3.453372  10 O  s         
   108     -2.170154   7 P  s               142     -1.457685   9 O  dxx       
   147     -1.421543   9 O  dzz             145     -1.179061   9 O  dyy       
   157     -1.134129  10 O  dxx             162     -1.066557  10 O  dzz       
   160     -0.920367  10 O  dyy              85      0.841243   6 C  s         

 Vector  184  Occ=0.000000D+00  E= 4.344181D+00
              MO Center= -1.4D+00, -7.0D-02, -5.1D-01, r^2= 4.0D+00
   Bfn.  Coefficient  Atom+Function         Bfn.  Coefficient  Atom+Function  
  ----- ------------  ---------------      ----- ------------  ---------------
   153     -3.487730  10 O  s               123      3.367751   8 O  s         
   138      2.616351   9 O  s               168     -1.628425  11 O  s         
   157      1.189189  10 O  dxx             162      1.126868  10 O  dzz       
   110      1.090271   7 P  py              160      1.067525  10 O  dyy       
   132     -1.050081   8 O  dzz             130     -1.044284   8 O  dyy       

 Vector  185  Occ=0.000000D+00  E= 4.404158D+00
              MO Center=  2.1D+00, -6.8D-02,  3.5D-02, r^2= 1.9D+00
   Bfn.  Coefficient  Atom+Function         Bfn.  Coefficient  Atom+Function  
  ----- ------------  ---------------      ----- ------------  ---------------
    17      2.353687   2 C  s                36      1.913602   3 Cl s         
    55      1.818470   4 Cl s                21      1.747877   2 C  s         
    25     -1.537620   2 C  dxx              30     -1.482141   2 C  dzz       
    28     -1.424181   2 C  dyy               2      1.112636   1 C  s         
    49     -0.838836   3 Cl dzz              47     -0.819448   3 Cl dyy       

 Vector  186  Occ=0.000000D+00  E= 4.505152D+00
              MO Center= -1.2D+00, -1.4D-01,  6.5D-01, r^2= 4.4D+00
   Bfn.  Coefficient  Atom+Function         Bfn.  Coefficient  Atom+Function  
  ----- ------------  ---------------      ----- ------------  ---------------
   123      4.745044   8 O  s               168      3.582445  11 O  s         
   108     -2.473878   7 P  s               153      1.397452  10 O  s         
   130     -1.367372   8 O  dyy             132     -1.366186   8 O  dzz       
   110     -1.320182   7 P  py              127     -1.276695   8 O  dxx       
    70      1.262734   5 C  s               172     -1.000013  11 O  dxx       

 Vector  187  Occ=0.000000D+00  E= 4.656600D+00
              MO Center=  3.9D-01,  3.1D-01, -1.6D-01, r^2= 5.1D+00
   Bfn.  Coefficient  Atom+Function         Bfn.  Coefficient  Atom+Function  
  ----- ------------  ---------------      ----- ------------  ---------------
   123      2.191759   8 O  s                 2      2.113591   1 C  s         
    55     -2.106328   4 Cl s                10     -1.645014   1 C  dxx       
    13     -1.370239   1 C  dyy              15     -1.325184   1 C  dzz       
   168      1.313517  11 O  s                85      1.270990   6 C  s         
    89      1.206880   6 C  s               108     -1.122191   7 P  s         

 Vector  188  Occ=0.000000D+00  E= 4.660337D+00
              MO Center= -1.3D+00,  1.3D+00, -6.8D-01, r^2= 5.1D+00
   Bfn.  Coefficient  Atom+Function         Bfn.  Coefficient  Atom+Function  
  ----- ------------  ---------------      ----- ------------  ---------------
    85      2.376192   6 C  s                89      2.058669   6 C  s         
    96     -1.683568   6 C  dyy              98     -1.549707   6 C  dzz       
    93     -1.520146   6 C  dxx             138     -1.446812   9 O  s         
   153     -1.255702  10 O  s                 2     -1.120838   1 C  s         
    55      1.082791   4 Cl s                10      0.891774   1 C  dxx       

 Vector  189  Occ=0.000000D+00  E= 4.683211D+00
              MO Center= -2.3D+00, -6.2D-01,  1.5D+00, r^2= 3.2D+00
   Bfn.  Coefficient  Atom+Function         Bfn.  Coefficient  Atom+Function  
  ----- ------------  ---------------      ----- ------------  ---------------
   168     -2.492755  11 O  s                70      2.460544   5 C  s         
    74      2.254172   5 C  s                83     -1.701862   5 C  dzz       
    81     -1.670583   5 C  dyy              78     -1.590685   5 C  dxx       
   153     -1.445210  10 O  s               123     -1.388111   8 O  s         
   110      0.850707   7 P  py              108      0.824972   7 P  s         

 Vector  190  Occ=0.000000D+00  E= 4.722939D+00
              MO Center=  3.0D+00, -4.6D-02,  1.0D-02, r^2= 2.8D+00
   Bfn.  Coefficient  Atom+Function         Bfn.  Coefficient  Atom+Function  
  ----- ------------  ---------------      ----- ------------  ---------------
    36      4.263166   3 Cl s                55     -3.349271   4 Cl s         
    44     -1.943440   3 Cl dxx              47     -1.926102   3 Cl dyy       
    49     -1.927089   3 Cl dzz              66      1.535851   4 Cl dyy       
    68      1.520284   4 Cl dzz              63      1.493163   4 Cl dxx       
   123     -0.697204   8 O  s                32     -0.627355   3 Cl s         

 Vector  191  Occ=0.000000D+00  E= 4.797828D+00
              MO Center=  2.2D+00,  1.1D-01,  1.5D-01, r^2= 2.8D+00
   Bfn.  Coefficient  Atom+Function         Bfn.  Coefficient  Atom+Function  
  ----- ------------  ---------------      ----- ------------  ---------------
    55      3.013369   4 Cl s                36      2.515685   3 Cl s         
    17     -1.731253   2 C  s                21     -1.464998   2 C  s         
    66     -1.390894   4 Cl dyy              68     -1.341711   4 Cl dzz       
    63     -1.331731   4 Cl dxx              25      1.321538   2 C  dxx       
    28      1.163237   2 C  dyy              44     -1.161024   3 Cl dxx       


 center of mass
 --------------
 x =   0.14426313 y =  -0.02000458 z =  -0.03046178

 moments of inertia (a.u.)
 ------------------
        1585.966553291824         -30.345322711428         -47.819771489626
         -30.345322711428        4858.482780865682         -52.647912702612
         -47.819771489626         -52.647912702612        5109.021687212357

     Multipole analysis of the density
     ---------------------------------

     L   x y z        total         alpha         beta         nuclear
     -   - - -        -----         -----         ----         -------
     0   0 0 0     -0.000000    -56.000000    -56.000000    112.000000

     1   1 0 0     -0.676222     -0.338118     -0.338118      0.000013
     1   0 1 0      0.988142      0.494072      0.494072     -0.000002
     1   0 0 1      1.206286      0.603131      0.603131      0.000025

     2   2 0 0    -66.791715  -1094.444893  -1094.444893   2122.098072
     2   1 1 0     -5.715720     -2.857780     -2.857780     -0.000160
     2   1 0 1     -7.357071     -3.721050     -3.721050      0.085029
     2   0 2 0    -61.231995   -280.683133   -280.683133    500.134271
     2   0 1 1     -6.603819     -3.294235     -3.294235     -0.015348
     2   0 0 2    -61.466820   -215.086226   -215.086226    368.705632


------------------------------------------------------------
EAF file 0: "./PhoWat_SMD_HF.aoints.0" size=281542656 bytes
------------------------------------------------------------
               write      read    awrite     aread      wait
               -----      ----    ------     -----      ----
     calls:      910        16         0      7875      7875
   data(b): 4.77e+08  8.39e+06  0.00e+00  4.13e+09
   time(s): 0.00e+00  0.00e+00  0.00e+00  0.00e+00  0.00e+00
rate(mb/s): 0.00e+00  0.00e+00
------------------------------------------------------------


 Parallel integral file used    1718 records with       0 large values


 Task  times  cpu:       30.2s     wall:       30.2s


                                NWChem Input Module
                                -------------------


 Summary of allocated global arrays
-----------------------------------
  No active global arrays



                         GA Statistics for process    0
                         ------------------------------

       create   destroy   get      put      acc     scatter   gather  read&inc
calls:  235      235     5021     5117      151        0        0     1250     
number of processes/call 2.09e+13 4.39e+13 8.00e+00 0.00e+00 0.00e+00
bytes total:             1.07e+08 2.48e+07 4.41e+07 0.00e+00 0.00e+00 1.00e+04
bytes remote:            7.18e+07 8.63e+06 3.26e+07 0.00e+00 0.00e+00 0.00e+00
Max memory consumed for GA by this process: 2971616 bytes

MA_summarize_allocated_blocks: starting scan ...
MA_summarize_allocated_blocks: scan completed: 0 heap blocks, 0 stack blocks
MA usage statistics:

	allocation statistics:
					      heap	     stack
					      ----	     -----
	current number of blocks	         0	         0
	maximum number of blocks	        22	        27
	current total bytes		         0	         0
	maximum total bytes		    114664	  46942184
	maximum total K-bytes		       115	     46943
	maximum total M-bytes		         1	        47


                                     CITATION
                                     --------
                Please cite the following reference when publishing
                           results obtained with NWChem:

          E. Apra, E. J. Bylaska, W. A. de Jong, N. Govind, K. Kowalski,
       T. P. Straatsma, M. Valiev, H. J. J. van Dam, Y. Alexeev, J. Anchell,
       V. Anisimov, F. W. Aquino, R. Atta-Fynn, J. Autschbach, N. P. Bauman,
     J. C. Becca, D. E. Bernholdt, K. Bhaskaran-Nair, S. Bogatko, P. Borowski,
         J. Boschen, J. Brabec, A. Bruner, E. Cauet, Y. Chen, G. N. Chuev,
      C. J. Cramer, J. Daily, M. J. O. Deegan, T. H. Dunning Jr., M. Dupuis,
   K. G. Dyall, G. I. Fann, S. A. Fischer, A. Fonari, H. Fruchtl, L. Gagliardi,
      J. Garza, N. Gawande, S. Ghosh, K. Glaesemann, A. W. Gotz, J. Hammond,
       V. Helms, E. D. Hermes, K. Hirao, S. Hirata, M. Jacquelin, L. Jensen,
   B. G. Johnson, H. Jonsson, R. A. Kendall, M. Klemm, R. Kobayashi, V. Konkov,
      S. Krishnamoorthy, M. Krishnan, Z. Lin, R. D. Lins, R. J. Littlefield,
      A. J. Logsdail, K. Lopata, W. Ma, A. V. Marenich, J. Martin del Campo,
   D. Mejia-Rodriguez, J. E. Moore, J. M. Mullin, T. Nakajima, D. R. Nascimento,
    J. A. Nichols, P. J. Nichols, J. Nieplocha, A. Otero-de-la-Roza, B. Palmer,
    A. Panyala, T. Pirojsirikul, B. Peng, R. Peverati, J. Pittner, L. Pollack,
   R. M. Richard, P. Sadayappan, G. C. Schatz, W. A. Shelton, D. W. Silverstein,
   D. M. A. Smith, T. A. Soares, D. Song, M. Swart, H. L. Taylor, G. S. Thomas,
            V. Tipparaju, D. G. Truhlar, K. Tsemekhman, T. Van Voorhis,
      A. Vazquez-Mayagoitia, P. Verma, O. Villa, A. Vishnu, K. D. Vogiatzis,
        D. Wang, J. H. Weare, M. J. Williamson, T. L. Windus, K. Wolinski,
        A. T. Wong, Q. Wu, C. Yang, Q. Yu, M. Zacharias, Z. Zhang, Y. Zhao,
                                and R. J. Harrison
                        "NWChem: Past, present, and future
                         J. Chem. Phys. 152, 184102 (2020)
                               doi:10.1063/5.0004997

                                      AUTHORS
                                      -------
     E. Apra, E. J. Bylaska, N. Govind, K. Kowalski, M. Valiev, W. A. de Jong,
      T. P. Straatsma, H. J. J. van Dam, D. Wang, T. L. Windus, N. P. Bauman,
       A. Panyala, J. Hammond, J. Autschbach, K. Bhaskaran-Nair, J. Brabec,
    K. Lopata, S. A. Fischer, S. Krishnamoorthy, M. Jacquelin, W. Ma, M. Klemm,
       O. Villa, Y. Chen, V. Anisimov, F. Aquino, S. Hirata, M. T. Hackler,
           Eric Hermes, L. Jensen, J. E. Moore, J. C. Becca, V. Konjkov,
            D. Mejia-Rodriguez, T. Risthaus, M. Malagoli, A. Marenich,
   A. Otero-de-la-Roza, J. Mullin, P. Nichols, R. Peverati, J. Pittner, Y. Zhao,
        P.-D. Fan, A. Fonari, M. J. Williamson, R. J. Harrison, J. R. Rehr,
      M. Dupuis, D. Silverstein, D. M. A. Smith, J. Nieplocha, V. Tipparaju,
      M. Krishnan, B. E. Van Kuiken, A. Vazquez-Mayagoitia, M. Swart, Q. Wu,
   T. Van Voorhis, A. A. Auer, M. Nooijen, L. D. Crosby, E. Brown, G. Cisneros,
     G. I. Fann, H. Fruchtl, J. Garza, K. Hirao, R. A. Kendall, J. A. Nichols,
       K. Tsemekhman, K. Wolinski, J. Anchell, D. E. Bernholdt, P. Borowski,
       T. Clark, D. Clerc, H. Dachsel, M. J. O. Deegan, K. Dyall, D. Elwood,
      E. Glendening, M. Gutowski, A. C. Hess, J. Jaffe, B. G. Johnson, J. Ju,
        R. Kobayashi, R. Kutteh, Z. Lin, R. Littlefield, X. Long, B. Meng,
      T. Nakajima, S. Niu, L. Pollack, M. Rosing, K. Glaesemann, G. Sandrone,
      M. Stave, H. Taylor, G. Thomas, J. H. van Lenthe, A. T. Wong, Z. Zhang.

 Total times  cpu:       30.3s     wall:       30.3s
