  NWChem w/ OpenMP: maximum threads =    1
 


============================== echo of input deck ==============================
echo

start tddftgrad_pyridine_opt

title "TDDFT/LDA geometry optimization of Pyridine with 6-31G"

geometry nocenter
N     0.00000000    0.00000000    1.41599295
C     0.00000000   -1.15372936    0.72067272
C     0.00000000    1.15372936    0.72067272
C     0.00000000   -1.20168790   -0.67391011
C     0.00000000    1.20168790   -0.67391011
C     0.00000000    0.00000000   -1.38406147
H     0.00000000   -2.07614628    1.31521089
H     0.00000000    2.07614628    1.31521089
H     0.00000000    2.16719803   -1.19243296
H     0.00000000   -2.16719803   -1.19243296
H     0.00000000    0.00000000   -2.48042299
symmetry c1
end

basis spherical
 * library "6-31G"
end

driver
 clear
 maxiter 100
end

dft
 iterations 500
 xc slater 1.0 vwn_5 1.0
 grid xfine
 grid euler
 direct
end

tddft
 nroots 2
 algorithm 1
 notriplet
 target 1
 targetsym a
 civecs
 grad
   root 1
 end
end
task tddft optimize
================================================================================


                                         
                                         
 
 
             Northwest Computational Chemistry Package (NWChem) 7.0.0
             --------------------------------------------------------
 
 
                    Environmental Molecular Sciences Laboratory
                       Pacific Northwest National Laboratory
                                Richland, WA 99352
 
                              Copyright (c) 1994-2019
                       Pacific Northwest National Laboratory
                            Battelle Memorial Institute
 
             NWChem is an open-source computational chemistry package
                        distributed under the terms of the
                      Educational Community License (ECL) 2.0
             A copy of the license is included with this distribution
                              in the LICENSE.TXT file
 
                                  ACKNOWLEDGMENT
                                  --------------

            This software and its documentation were developed at the
            EMSL at Pacific Northwest National Laboratory, a multiprogram
            national laboratory, operated for the U.S. Department of Energy
            by Battelle under Contract Number DE-AC05-76RL01830. Support
            for this work was provided by the Department of Energy Office
            of Biological and Environmental Research, Office of Basic
            Energy Sciences, and the Office of Advanced Scientific Computing.


           Job information
           ---------------

    hostname        = g94.hpcs4.emsl.pnl.gov
    program         = /home/edo/cascade/git/nwchem.last/bin/LINUX64/nwchem
    date            = Fri Nov  1 11:22:46 2019

    compiled        = Mon_Oct_28_12:54:07_2019
    source          = /home/edo/cascade/git/nwchem.last
    nwchem branch   = 7.0.0
    nwchem revision = nwchem_on_git-1110-g67f5237
    ga revision     = 5.7.0
    use scalapack   = T
    input           = /home/edo/cascade/git/nwchem.last/QA/tests/tddftgrad_pyridine_opt/tddftgrad_pyridine_opt.nw
    prefix          = tddftgrad_pyridine_opt.
    data base       = /dev/shm/tddftgrad_pyridine_opt.db
    status          = startup
    nproc           =      192
    time left       =     -1s



           Memory information
           ------------------

    heap     =   13107198 doubles =    100.0 Mbytes
    stack    =   13107195 doubles =    100.0 Mbytes
    global   =   26214400 doubles =    200.0 Mbytes (distinct from heap & stack)
    total    =   52428793 doubles =    400.0 Mbytes
    verify   = yes
    hardfail = no 


           Directory information
           ---------------------
 
  0 permanent = /dev/shm
  0 scratch   = /dev/shm
 
 
 
 
                                NWChem Input Module
                                -------------------
 
 
              TDDFT/LDA geometry optimization of Pyridine with 6-31G
              ------------------------------------------------------

 Scaling coordinates for geometry "geometry" by  1.889725989
 (inverse scale =  0.529177249)

 Turning off AUTOSYM since
 SYMMETRY directive was detected!
 

          ------
          auto-z
          ------
  no constraints, skipping   0.000000000000000E+000
  no constraints, skipping   0.000000000000000E+000
 
 
                             Geometry "geometry" -> ""
                             -------------------------
 
 Output coordinates in angstroms (scale by  1.889725989 to convert to a.u.)
 
  No.       Tag          Charge          X              Y              Z
 ---- ---------------- ---------- -------------- -------------- --------------
    1 N                    7.0000     0.00000000     0.00000000     1.41599295
    2 C                    6.0000     0.00000000    -1.15372936     0.72067272
    3 C                    6.0000     0.00000000     1.15372936     0.72067272
    4 C                    6.0000     0.00000000    -1.20168790    -0.67391011
    5 C                    6.0000     0.00000000     1.20168790    -0.67391011
    6 C                    6.0000     0.00000000     0.00000000    -1.38406147
    7 H                    1.0000     0.00000000    -2.07614628     1.31521089
    8 H                    1.0000     0.00000000     2.07614628     1.31521089
    9 H                    1.0000     0.00000000     2.16719803    -1.19243296
   10 H                    1.0000     0.00000000    -2.16719803    -1.19243296
   11 H                    1.0000     0.00000000     0.00000000    -2.48042299
 
      Atomic Mass 
      ----------- 
 
      N                 14.003070
      C                 12.000000
      H                  1.007825
 

 Effective nuclear repulsion energy (a.u.)     205.2187467251

            Nuclear Dipole moment (a.u.) 
            ----------------------------
        X                 Y               Z
 ---------------- ---------------- ----------------
     0.0000000000     0.0000000000    -0.1249751007
 


                                Z-matrix (autoz)
                                -------- 

 Units are Angstrom for bonds and degrees for angles
 
      Type          Name      I     J     K     L     M      Value
      ----------- --------  ----- ----- ----- ----- ----- ----------
    1 Stretch                  1     2                       1.34706
    2 Stretch                  1     3                       1.34706
    3 Stretch                  2     4                       1.39541
    4 Stretch                  2     7                       1.09742
    5 Stretch                  3     5                       1.39541
    6 Stretch                  3     8                       1.09742
    7 Stretch                  4     6                       1.39584
    8 Stretch                  4    10                       1.09594
    9 Stretch                  5     6                       1.39584
   10 Stretch                  5     9                       1.09594
   11 Stretch                  6    11                       1.09636
   12 Bend                     1     2     4               123.04577
   13 Bend                     1     2     7               116.12026
   14 Bend                     1     3     5               123.04577
   15 Bend                     1     3     8               116.12026
   16 Bend                     2     1     3               117.84762
   17 Bend                     2     4     6               118.61188
   18 Bend                     2     4    10               120.20740
   19 Bend                     3     5     6               118.61188
   20 Bend                     3     5     9               120.20740
   21 Bend                     4     2     7               120.83398
   22 Bend                     4     6     5               118.83709
   23 Bend                     4     6    11               120.58146
   24 Bend                     5     3     8               120.83398
   25 Bend                     5     6    11               120.58146
   26 Bend                     6     4    10               121.18072
   27 Bend                     6     5     9               121.18072
   28 Torsion                  1     2     4     6           0.00000
   29 Torsion                  1     2     4    10         180.00000
   30 Torsion                  1     3     5     6           0.00000
   31 Torsion                  1     3     5     9         180.00000
   32 Torsion                  2     1     3     5           0.00000
   33 Torsion                  2     1     3     8         180.00000
   34 Torsion                  2     4     6     5           0.00000
   35 Torsion                  2     4     6    11         180.00000
   36 Torsion                  3     1     2     4           0.00000
   37 Torsion                  3     1     2     7         180.00000
   38 Torsion                  3     5     6     4           0.00000
   39 Torsion                  3     5     6    11         180.00000
   40 Torsion                  4     6     5     9         180.00000
   41 Torsion                  5     6     4    10         180.00000
   42 Torsion                  6     4     2     7         180.00000
   43 Torsion                  6     5     3     8         180.00000
   44 Torsion                  7     2     4    10           0.00000
   45 Torsion                  8     3     5     9           0.00000
   46 Torsion                  9     5     6    11           0.00000
   47 Torsion                 10     4     6    11           0.00000
 
 
            XYZ format geometry
            -------------------
    11
 geometry
 N                     0.00000000     0.00000000     1.41599295
 C                     0.00000000    -1.15372936     0.72067272
 C                     0.00000000     1.15372936     0.72067272
 C                     0.00000000    -1.20168790    -0.67391011
 C                     0.00000000     1.20168790    -0.67391011
 C                     0.00000000     0.00000000    -1.38406147
 H                     0.00000000    -2.07614628     1.31521089
 H                     0.00000000     2.07614628     1.31521089
 H                     0.00000000     2.16719803    -1.19243296
 H                     0.00000000    -2.16719803    -1.19243296
 H                     0.00000000     0.00000000    -2.48042299
 
 ==============================================================================
                                internuclear distances
 ------------------------------------------------------------------------------
       center one      |      center two      | atomic units |  angstroms
 ------------------------------------------------------------------------------
    2 C                |   1 N                |     2.54557  |     1.34706
    3 C                |   1 N                |     2.54557  |     1.34706
    4 C                |   2 C                |     2.63694  |     1.39541
    5 C                |   3 C                |     2.63694  |     1.39541
    6 C                |   4 C                |     2.63775  |     1.39584
    6 C                |   5 C                |     2.63775  |     1.39584
    7 H                |   2 C                |     2.07382  |     1.09742
    8 H                |   3 C                |     2.07382  |     1.09742
    9 H                |   5 C                |     2.07102  |     1.09594
   10 H                |   4 C                |     2.07102  |     1.09594
   11 H                |   6 C                |     2.07182  |     1.09636
 ------------------------------------------------------------------------------
                         number of included internuclear distances:         11
 ==============================================================================



 ==============================================================================
                                 internuclear angles
 ------------------------------------------------------------------------------
        center 1       |       center 2       |       center 3       |  degrees
 ------------------------------------------------------------------------------
    2 C                |   1 N                |   3 C                |   117.85
    1 N                |   2 C                |   4 C                |   123.05
    1 N                |   2 C                |   7 H                |   116.12
    4 C                |   2 C                |   7 H                |   120.83
    1 N                |   3 C                |   5 C                |   123.05
    1 N                |   3 C                |   8 H                |   116.12
    5 C                |   3 C                |   8 H                |   120.83
    2 C                |   4 C                |   6 C                |   118.61
    2 C                |   4 C                |  10 H                |   120.21
    6 C                |   4 C                |  10 H                |   121.18
    3 C                |   5 C                |   6 C                |   118.61
    3 C                |   5 C                |   9 H                |   120.21
    6 C                |   5 C                |   9 H                |   121.18
    4 C                |   6 C                |   5 C                |   118.84
    4 C                |   6 C                |  11 H                |   120.58
    5 C                |   6 C                |  11 H                |   120.58
 ------------------------------------------------------------------------------
                            number of included internuclear angles:         16
 ==============================================================================





 Summary of "ao basis" -> "" (spherical)
 ------------------------------------------------------------------------------
       Tag                 Description            Shells   Functions and Types
 ---------------- ------------------------------  ------  ---------------------
 *                           6-31G                    on all atoms 


 
  Deleted DRIVER restart files 
 
 tddft_input: filename not found; default name will be used
 
 
                           NWChem Geometry Optimization
                           ----------------------------
 
 
 
 
              TDDFT/LDA geometry optimization of Pyridine with 6-31G
 
 
  no constraints, skipping   0.000000000000000E+000
 maximum gradient threshold         (gmax) =   0.000450
 rms gradient threshold             (grms) =   0.000300
 maximum cartesian step threshold   (xmax) =   0.001800
 rms cartesian step threshold       (xrms) =   0.001200
 fixed trust radius                (trust) =   0.300000
 maximum step size to saddle      (sadstp) =   0.100000
 energy precision                  (eprec) =   1.0D-07
 maximum number of steps          (nptopt) =  100
 initial hessian option           (inhess) =    0
 line search option               (linopt) =    1
 hessian update option            (modupd) =    1
 saddle point option              (modsad) =    0
 initial eigen-mode to follow     (moddir) =    0
 initial variable to follow       (vardir) =    0
 follow first negative mode     (firstneg) =    T
 apply conjugacy                    (opcg) =    F
 source of zmatrix                         =   autoz   


          -------------------
          Energy Minimization
          -------------------

 
 Names of Z-matrix variables 
    1              2              3              4              5         
    6              7              8              9             10         
   11             12             13             14             15         
   16             17             18             19             20         
   21             22             23             24             25         
   26             27             28             29             30         
   31             32             33             34             35         
   36             37             38             39             40         
   41             42             43             44             45         
   46             47         
 
 Variables with the same non-blank name are constrained to be equal
 
 
 Using diagonal initial Hessian 
 Scaling for Hessian diagonals: bonds = 1.00  angles = 0.25  torsions = 0.10

          --------
          Step   0
          --------
 
 
                         Geometry "geometry" -> "geometry"
                         ---------------------------------
 
 Output coordinates in angstroms (scale by  1.889725989 to convert to a.u.)
 
  No.       Tag          Charge          X              Y              Z
 ---- ---------------- ---------- -------------- -------------- --------------
    1 N                    7.0000     0.00000000     0.00000000     1.41599295
    2 C                    6.0000     0.00000000    -1.15372936     0.72067272
    3 C                    6.0000     0.00000000     1.15372936     0.72067272
    4 C                    6.0000     0.00000000    -1.20168790    -0.67391011
    5 C                    6.0000     0.00000000     1.20168790    -0.67391011
    6 C                    6.0000     0.00000000     0.00000000    -1.38406147
    7 H                    1.0000     0.00000000    -2.07614628     1.31521089
    8 H                    1.0000     0.00000000     2.07614628     1.31521089
    9 H                    1.0000     0.00000000     2.16719803    -1.19243296
   10 H                    1.0000     0.00000000    -2.16719803    -1.19243296
   11 H                    1.0000     0.00000000     0.00000000    -2.48042299
 
      Atomic Mass 
      ----------- 
 
      N                 14.003070
      C                 12.000000
      H                  1.007825
 

 Effective nuclear repulsion energy (a.u.)     205.2187467251

            Nuclear Dipole moment (a.u.) 
            ----------------------------
        X                 Y               Z
 ---------------- ---------------- ----------------
     0.0000000000     0.0000000000    -0.1249751007
 
 
                                 NWChem DFT Module
                                 -----------------
 
 
              TDDFT/LDA geometry optimization of Pyridine with 6-31G
 
 
                      Basis "ao basis" -> "ao basis" (spherical)
                      -----
  N (Nitrogen)
  ------------
            Exponent  Coefficients 
       -------------- ---------------------------------------------------------
  1 S  4.17351100E+03  0.001835
  1 S  6.27457900E+02  0.013995
  1 S  1.42902100E+02  0.068587
  1 S  4.02343300E+01  0.232241
  1 S  1.28202100E+01  0.469070
  1 S  4.39043700E+00  0.360455
 
  2 S  1.16263580E+01 -0.114961
  2 S  2.71628000E+00 -0.169118
  2 S  7.72218000E-01  1.145852
 
  3 P  1.16263580E+01  0.067580
  3 P  2.71628000E+00  0.323907
  3 P  7.72218000E-01  0.740895
 
  4 S  2.12031300E-01  1.000000
 
  5 P  2.12031300E-01  1.000000
 
  C (Carbon)
  ----------
            Exponent  Coefficients 
       -------------- ---------------------------------------------------------
  1 S  3.04752490E+03  0.001835
  1 S  4.57369510E+02  0.014037
  1 S  1.03948690E+02  0.068843
  1 S  2.92101550E+01  0.232184
  1 S  9.28666300E+00  0.467941
  1 S  3.16392700E+00  0.362312
 
  2 S  7.86827240E+00 -0.119332
  2 S  1.88128850E+00 -0.160854
  2 S  5.44249300E-01  1.143456
 
  3 P  7.86827240E+00  0.068999
  3 P  1.88128850E+00  0.316424
  3 P  5.44249300E-01  0.744308
 
  4 S  1.68714400E-01  1.000000
 
  5 P  1.68714400E-01  1.000000
 
  H (Hydrogen)
  ------------
            Exponent  Coefficients 
       -------------- ---------------------------------------------------------
  1 S  1.87311370E+01  0.033495
  1 S  2.82539370E+00  0.234727
  1 S  6.40121700E-01  0.813757
 
  2 S  1.61277800E-01  1.000000
 


 Summary of "ao basis" -> "ao basis" (spherical)
 ------------------------------------------------------------------------------
       Tag                 Description            Shells   Functions and Types
 ---------------- ------------------------------  ------  ---------------------
 N                           6-31G                   5        9   3s2p
 C                           6-31G                   5        9   3s2p
 H                           6-31G                   2        2   2s




 Summary of "ao basis" -> "ao basis" (spherical)
 ------------------------------------------------------------------------------
       Tag                 Description            Shells   Functions and Types
 ---------------- ------------------------------  ------  ---------------------
 N                           6-31G                   5        9   3s2p
 C                           6-31G                   5        9   3s2p
 H                           6-31G                   2        2   2s


  Caching 1-el integrals 
 
            General Information
            -------------------
          SCF calculation type: DFT
          Wavefunction type:  closed shell.
          No. of atoms     :    11
          No. of electrons :    42
           Alpha electrons :    21
            Beta electrons :    21
          Charge           :     0
          Spin multiplicity:     1
          Use of symmetry is: off; symmetry adaption is: off
          Maximum number of iterations: 500
          This is a Direct SCF calculation.
          AO basis - number of functions:    64
                     number of shells:    40
          Convergence on energy requested:  1.00D-06
          Convergence on density requested:  1.00D-05
          Convergence on gradient requested:  5.00D-04
 
              XC Information
              --------------
                        Slater Exchange Functional  1.000 local    
                      VWN V Correlation Functional  1.000 local    
 
             Grid Information
             ----------------
          Grid used for XC integration:  xfine     
          Radial quadrature: Euler-MacLaurin     
          Angular quadrature: Lebedev. 
          Tag              B.-S. Rad. Rad. Pts. Rad. Cut. Ang. Pts.
          ---              ---------- --------- --------- ---------
          N                   0.65       80          11.0      1454
          C                   0.70       80          11.0      1454
          H                   0.35       86          12.0      1202
          Grid pruning is: on 
          Number of quadrature shells:   910
          Spatial weights used:  Erf1
 
          Convergence Information
          -----------------------
          Convergence aids based upon iterative change in 
          total energy or number of iterations. 
          Levelshifting, if invoked, occurs when the 
          HOMO/LUMO gap drops below (HL_TOL):  1.00D-02
          DIIS, if invoked, will attempt to extrapolate 
          using up to (NFOCK): 10 stored Fock matrices.

                    Damping( 0%)  Levelshifting(0.5)       DIIS
                  --------------- ------------------- ---------------
          dE  on:    start            ASAP                start   
          dE off:    2 iters        500 iters           500 iters 

 
      Screening Tolerance Information
      -------------------------------
          Density screening/tol_rho:  1.00D-10
          AO Gaussian exp screening on grid/accAOfunc:  14
          CD Gaussian exp screening on grid/accCDfunc:  20
          XC Gaussian exp screening on grid/accXCfunc:  20
          Schwarz screening/accCoul:  1.00D-08

 
      Superposition of Atomic Density Guess
      -------------------------------------
 
 Sum of atomic energies:        -245.08617168
 
      Non-variational initial energy
      ------------------------------

 Total energy =    -248.972636
 1-e energy   =    -735.912951
 2-e energy   =     281.721569
 HOMO         =      -0.278286
 LUMO         =      -0.013520
 
   Time after variat. SCF:      2.9
   Time prior to 1st pass:      2.9

 Grid_pts file          = /dev/shm/tddftgrad_pyridine_opt.gridpts.000
 Record size in doubles =  12289        No. of grid_pts per rec  =   3070
 Max. records in memory =      4        Max. recs in file   =   5277345

 Grid integrated density:      42.000000746876
 Requested integration accuracy:   0.10E-07

           Memory utilization after 1st SCF pass: 
           Heap Space remaining (MW):        6.76             6757158
          Stack Space remaining (MW):       13.11            13106548

   convergence    iter        energy       DeltaE   RMS-Dens  Diis-err    time
 ---------------- ----- ----------------- --------- --------- ---------  ------
 d= 0,ls=0.0,diis     1   -245.9062841619 -4.51D+02  2.43D-02  8.65D-01     3.0
 Grid integrated density:      42.000000443778
 Requested integration accuracy:   0.10E-07
 d= 0,ls=0.0,diis     2   -245.8626008149  4.37D-02  1.96D-02  9.91D-01     3.0
 d= 0,ls=0.0,diis     3   -245.9293249745 -6.67D-02  8.47D-03  5.03D-01     3.1
 d= 0,ls=0.0,diis     4   -245.9827568982 -5.34D-02  3.40D-03  3.62D-02     3.1
 d= 0,ls=0.0,diis     5   -245.9871585419 -4.40D-03  1.25D-03  6.40D-03     3.2
  Resetting Diis
 d= 0,ls=0.0,diis     6   -245.9881446581 -9.86D-04  3.11D-04  3.41D-04     3.3
 d= 0,ls=0.0,diis     7   -245.9881934827 -4.88D-05  1.22D-04  3.84D-06     3.3
 d= 0,ls=0.0,diis     8   -245.9881902169  3.27D-06  6.94D-05  2.75D-05     3.4
 d= 0,ls=0.0,diis     9   -245.9881942001 -3.98D-06  9.86D-06  2.85D-07     3.4
 d= 0,ls=0.0,diis    10   -245.9881942333 -3.32D-08  4.47D-06  7.49D-08     3.5


         Total DFT energy =     -245.988194233292
      One electron energy =     -739.809293939886
           Coulomb energy =      322.188845054951
    Exchange-Corr. energy =      -33.586492073419
 Nuclear repulsion energy =      205.218746725062

 Numeric. integr. density =       42.000000192444

     Total iterative time =      0.6s


 
                       DFT Final Molecular Orbital Analysis
                       ------------------------------------
 
 Vector    1  Occ=2.000000D+00  E=-1.386552D+01
              MO Center=  7.1D-14, -1.9D-13,  1.4D+00, r^2= 2.0D-02
   Bfn.  Coefficient  Atom+Function         Bfn.  Coefficient  Atom+Function  
  ----- ------------  ---------------      ----- ------------  ---------------
     1      0.994560   1 N  s                 6     -0.047099   1 N  s         
     2      0.041205   1 N  s         
 
 Vector    2  Occ=2.000000D+00  E=-9.817674D+00
              MO Center=  7.2D-14, -4.4D-05,  7.2D-01, r^2= 1.4D+00
   Bfn.  Coefficient  Atom+Function         Bfn.  Coefficient  Atom+Function  
  ----- ------------  ---------------      ----- ------------  ---------------
    10      0.702928   2 C  s                19     -0.702901   3 C  s         
    11      0.031415   2 C  s                20     -0.031414   3 C  s         
 
 Vector    3  Occ=2.000000D+00  E=-9.817660D+00
              MO Center=  1.0D-13,  4.4D-05,  7.2D-01, r^2= 1.4D+00
   Bfn.  Coefficient  Atom+Function         Bfn.  Coefficient  Atom+Function  
  ----- ------------  ---------------      ----- ------------  ---------------
    10      0.702684   2 C  s                19      0.702711   3 C  s         
    11      0.029743   2 C  s                20      0.029744   3 C  s         
 
 Vector    4  Occ=2.000000D+00  E=-9.805746D+00
              MO Center=  7.3D-14, -2.8D-11, -1.4D+00, r^2= 2.9D-02
   Bfn.  Coefficient  Atom+Function         Bfn.  Coefficient  Atom+Function  
  ----- ------------  ---------------      ----- ------------  ---------------
    46      0.993907   6 C  s                47      0.044334   6 C  s         
    51     -0.041712   6 C  s         
 
 Vector    5  Occ=2.000000D+00  E=-9.797772D+00
              MO Center=  4.6D-14,  5.5D-06, -6.7D-01, r^2= 1.5D+00
   Bfn.  Coefficient  Atom+Function         Bfn.  Coefficient  Atom+Function  
  ----- ------------  ---------------      ----- ------------  ---------------
    28      0.702803   4 C  s                37      0.702806   5 C  s         
    33     -0.035749   4 C  s                42     -0.035749   5 C  s         
    29      0.031698   4 C  s                38      0.031698   5 C  s         
    51      0.026346   6 C  s         
 
 Vector    6  Occ=2.000000D+00  E=-9.797766D+00
              MO Center=  4.2D-14, -5.5D-06, -6.7D-01, r^2= 1.5D+00
   Bfn.  Coefficient  Atom+Function         Bfn.  Coefficient  Atom+Function  
  ----- ------------  ---------------      ----- ------------  ---------------
    28      0.702915   4 C  s                37     -0.702912   5 C  s         
    29      0.031592   4 C  s                38     -0.031591   5 C  s         
    33     -0.027089   4 C  s                42      0.027089   5 C  s         
 
 Vector    7  Occ=2.000000D+00  E=-8.696307D-01
              MO Center= -1.7D-11, -1.5D-09,  8.0D-01, r^2= 1.2D+00
   Bfn.  Coefficient  Atom+Function         Bfn.  Coefficient  Atom+Function  
  ----- ------------  ---------------      ----- ------------  ---------------
     6      0.350735   1 N  s                 2      0.315111   1 N  s         
    11      0.186937   2 C  s                20      0.186937   3 C  s         
     1     -0.158303   1 N  s                 5     -0.145519   1 N  pz        
    13      0.109993   2 C  py               22     -0.109993   3 C  py        
    10     -0.098671   2 C  s                19     -0.098671   3 C  s         
 
 Vector    8  Occ=2.000000D+00  E=-7.326564D-01
              MO Center=  3.3D-10,  2.4D-09, -6.1D-01, r^2= 2.0D+00
   Bfn.  Coefficient  Atom+Function         Bfn.  Coefficient  Atom+Function  
  ----- ------------  ---------------      ----- ------------  ---------------
    47      0.282290   6 C  s                 6     -0.230386   1 N  s         
    51      0.226787   6 C  s                29      0.203532   4 C  s         
    38      0.203532   5 C  s                 2     -0.183061   1 N  s         
    46     -0.148984   6 C  s                33      0.121304   4 C  s         
    42      0.121304   5 C  s                28     -0.107096   4 C  s         
 
 Vector    9  Occ=2.000000D+00  E=-6.929147D-01
              MO Center= -1.5D-11, -1.8D-09,  1.4D-01, r^2= 2.7D+00
   Bfn.  Coefficient  Atom+Function         Bfn.  Coefficient  Atom+Function  
  ----- ------------  ---------------      ----- ------------  ---------------
    11      0.239709   2 C  s                20     -0.239709   3 C  s         
    29      0.210934   4 C  s                38     -0.210934   5 C  s         
    15      0.181235   2 C  s                24     -0.181235   3 C  s         
     4     -0.155652   1 N  py               33      0.149389   4 C  s         
    42     -0.149389   5 C  s                10     -0.120467   2 C  s         
 
 Vector   10  Occ=2.000000D+00  E=-5.725405D-01
              MO Center= -3.4D-11, -1.2D-09,  1.2D-01, r^2= 3.3D+00
   Bfn.  Coefficient  Atom+Function         Bfn.  Coefficient  Atom+Function  
  ----- ------------  ---------------      ----- ------------  ---------------
     4      0.274907   1 N  py               49     -0.194894   6 C  py        
    29      0.187922   4 C  s                38     -0.187922   5 C  s         
    11     -0.165862   2 C  s                20      0.165862   3 C  s         
    33      0.160228   4 C  s                42     -0.160228   5 C  s         
    14     -0.157854   2 C  pz               23      0.157854   3 C  pz        
 
 Vector   11  Occ=2.000000D+00  E=-5.679780D-01
              MO Center= -1.1D-10, -5.6D-09, -3.3D-01, r^2= 3.3D+00
   Bfn.  Coefficient  Atom+Function         Bfn.  Coefficient  Atom+Function  
  ----- ------------  ---------------      ----- ------------  ---------------
    47      0.232364   6 C  s                 6      0.175158   1 N  s         
    32     -0.164069   4 C  pz               41     -0.164069   5 C  pz        
    51      0.163124   6 C  s                 2      0.148883   1 N  s         
    15     -0.149414   2 C  s                24     -0.149414   3 C  s         
    11     -0.140338   2 C  s                20     -0.140338   3 C  s         
 
 Vector   12  Occ=2.000000D+00  E=-4.806464D-01
              MO Center=  1.9D-10,  3.9D-10, -3.6D-01, r^2= 3.9D+00
   Bfn.  Coefficient  Atom+Function         Bfn.  Coefficient  Atom+Function  
  ----- ------------  ---------------      ----- ------------  ---------------
    50      0.254565   6 C  pz               31      0.170289   4 C  py        
    40     -0.170289   5 C  py               14     -0.143926   2 C  pz        
    23     -0.143926   3 C  pz               13      0.143114   2 C  py        
    22     -0.143114   3 C  py               63     -0.141090  11 H  s         
    54      0.116676   6 C  pz               32      0.109443   4 C  pz        
 
 Vector   13  Occ=2.000000D+00  E=-4.392765D-01
              MO Center=  1.7D-11,  1.9D-09, -5.5D-02, r^2= 2.7D+00
   Bfn.  Coefficient  Atom+Function         Bfn.  Coefficient  Atom+Function  
  ----- ------------  ---------------      ----- ------------  ---------------
     4      0.288448   1 N  py               49      0.274745   6 C  py        
    32      0.244523   4 C  pz               41     -0.244523   5 C  pz        
    14     -0.212321   2 C  pz               23      0.212321   3 C  pz        
    13     -0.180272   2 C  py               22     -0.180272   3 C  py        
    31     -0.112223   4 C  py               40     -0.112223   5 C  py        
 
 Vector   14  Occ=2.000000D+00  E=-4.179321D-01
              MO Center=  4.2D-11, -9.5D-09, -2.1D-01, r^2= 4.8D+00
   Bfn.  Coefficient  Atom+Function         Bfn.  Coefficient  Atom+Function  
  ----- ------------  ---------------      ----- ------------  ---------------
    31     -0.196760   4 C  py               40      0.196760   5 C  py        
     6      0.179012   1 N  s                59      0.175854   9 H  s         
    61      0.175854  10 H  s                51     -0.168693   6 C  s         
    13      0.154130   2 C  py               22     -0.154130   3 C  py        
    55     -0.141207   7 H  s                57     -0.141207   8 H  s         
 
 Vector   15  Occ=2.000000D+00  E=-3.885210D-01
              MO Center=  3.9D-11,  6.4D-10, -5.4D-03, r^2= 4.0D+00
   Bfn.  Coefficient  Atom+Function         Bfn.  Coefficient  Atom+Function  
  ----- ------------  ---------------      ----- ------------  ---------------
    31      0.222843   4 C  py               40      0.222843   5 C  py        
    13      0.201281   2 C  py               22      0.201281   3 C  py        
    14     -0.192394   2 C  pz               23      0.192394   3 C  pz        
    32      0.173071   4 C  pz               41     -0.173071   5 C  pz        
    59      0.143371   9 H  s                61     -0.143371  10 H  s         
 
 Vector   16  Occ=2.000000D+00  E=-3.650999D-01
              MO Center= -1.5D-09, -1.3D-09,  3.3D-01, r^2= 2.6D+00
   Bfn.  Coefficient  Atom+Function         Bfn.  Coefficient  Atom+Function  
  ----- ------------  ---------------      ----- ------------  ---------------
     3      0.304087   1 N  px               12      0.243528   2 C  px        
    21      0.243528   3 C  px               30      0.190952   4 C  px        
    39      0.190952   5 C  px               48      0.180638   6 C  px        
     7      0.170743   1 N  px               16      0.141170   2 C  px        
    25      0.141170   3 C  px               52      0.104401   6 C  px        
 
 Vector   17  Occ=2.000000D+00  E=-3.579685D-01
              MO Center=  1.3D-09,  5.5D-09, -8.2D-01, r^2= 3.3D+00
   Bfn.  Coefficient  Atom+Function         Bfn.  Coefficient  Atom+Function  
  ----- ------------  ---------------      ----- ------------  ---------------
    50      0.377420   6 C  pz               63     -0.244513  11 H  s         
    64     -0.242494  11 H  s                14      0.185634   2 C  pz        
    23      0.185634   3 C  pz               32     -0.183997   4 C  pz        
    41     -0.183997   5 C  pz                5      0.165675   1 N  pz        
    33      0.133393   4 C  s                42      0.133393   5 C  s         
 
 Vector   18  Occ=2.000000D+00  E=-3.227559D-01
              MO Center=  9.6D-12,  1.1D-08, -4.7D-02, r^2= 4.2D+00
   Bfn.  Coefficient  Atom+Function         Bfn.  Coefficient  Atom+Function  
  ----- ------------  ---------------      ----- ------------  ---------------
    49      0.289447   6 C  py               31     -0.246378   4 C  py        
    40     -0.246378   5 C  py               13      0.229314   2 C  py        
    22      0.229314   3 C  py                4     -0.227241   1 N  py        
    55     -0.156518   7 H  s                57      0.156518   8 H  s         
    56     -0.153424   7 H  s                58      0.153424   8 H  s         
 
 Vector   19  Occ=2.000000D+00  E=-2.661162D-01
              MO Center= -4.5D-10,  1.5D-09, -2.1D-01, r^2= 2.8D+00
   Bfn.  Coefficient  Atom+Function         Bfn.  Coefficient  Atom+Function  
  ----- ------------  ---------------      ----- ------------  ---------------
    48     -0.363351   6 C  px                3      0.349956   1 N  px        
    52     -0.238793   6 C  px                7      0.232061   1 N  px        
    30     -0.208929   4 C  px               39     -0.208929   5 C  px        
    34     -0.144415   4 C  px               43     -0.144415   5 C  px        
    12      0.124154   2 C  px               21      0.124154   3 C  px        
 
 Vector   20  Occ=2.000000D+00  E=-2.466116D-01
              MO Center= -3.2D-11, -3.3D-09,  3.0D-02, r^2= 2.9D+00
   Bfn.  Coefficient  Atom+Function         Bfn.  Coefficient  Atom+Function  
  ----- ------------  ---------------      ----- ------------  ---------------
    12      0.310930   2 C  px               21     -0.310930   3 C  px        
    30      0.299343   4 C  px               39     -0.299343   5 C  px        
    34      0.210122   4 C  px               43     -0.210122   5 C  px        
    16      0.204799   2 C  px               25     -0.204799   3 C  px        
 
 Vector   21  Occ=2.000000D+00  E=-1.970113D-01
              MO Center= -7.8D-11,  3.5D-10,  1.3D+00, r^2= 2.0D+00
   Bfn.  Coefficient  Atom+Function         Bfn.  Coefficient  Atom+Function  
  ----- ------------  ---------------      ----- ------------  ---------------
     5      0.510965   1 N  pz                9      0.351432   1 N  pz        
     6      0.278247   1 N  s                33      0.216514   4 C  s         
    42      0.216514   5 C  s                 2      0.170502   1 N  s         
    32      0.170622   4 C  pz               41      0.170622   5 C  pz        
    36      0.166458   4 C  pz               45      0.166458   5 C  pz        
 
 Vector   22  Occ=0.000000D+00  E=-6.029508D-02
              MO Center=  3.2D-10,  6.1D-09, -2.7D-02, r^2= 3.1D+00
   Bfn.  Coefficient  Atom+Function         Bfn.  Coefficient  Atom+Function  
  ----- ------------  ---------------      ----- ------------  ---------------
    52      0.480056   6 C  px                7      0.408723   1 N  px        
     3      0.394547   1 N  px               48      0.391665   6 C  px        
    34     -0.229238   4 C  px               43     -0.229238   5 C  px        
    16     -0.221666   2 C  px               25     -0.221666   3 C  px        
    12     -0.216395   2 C  px               21     -0.216395   3 C  px        
 
 Vector   23  Occ=0.000000D+00  E=-4.892457D-02
              MO Center=  2.7D-10, -3.9D-09,  1.4D-02, r^2= 3.2D+00
   Bfn.  Coefficient  Atom+Function         Bfn.  Coefficient  Atom+Function  
  ----- ------------  ---------------      ----- ------------  ---------------
    34     -0.412852   4 C  px               43      0.412852   5 C  px        
    16      0.403175   2 C  px               25     -0.403175   3 C  px        
    12      0.343243   2 C  px               21     -0.343243   3 C  px        
    30     -0.332848   4 C  px               39      0.332848   5 C  px        
 
 Vector   24  Occ=0.000000D+00  E= 5.969993D-02
              MO Center=  2.6D-11,  3.9D-07, -1.2D+00, r^2= 6.8D+00
   Bfn.  Coefficient  Atom+Function         Bfn.  Coefficient  Atom+Function  
  ----- ------------  ---------------      ----- ------------  ---------------
    64      1.084306  11 H  s                60      0.882496   9 H  s         
    62      0.882495  10 H  s                51     -0.723311   6 C  s         
    33     -0.602794   4 C  s                42     -0.602794   5 C  s         
    56      0.525665   7 H  s                58      0.525666   8 H  s         
    54      0.460979   6 C  pz               15     -0.315513   2 C  s         
 
 Vector   25  Occ=0.000000D+00  E= 9.004366D-02
              MO Center= -2.2D-10,  1.1D-09, -4.2D-02, r^2= 3.3D+00
   Bfn.  Coefficient  Atom+Function         Bfn.  Coefficient  Atom+Function  
  ----- ------------  ---------------      ----- ------------  ---------------
    34      0.507720   4 C  px               43      0.507720   5 C  px        
    52     -0.510207   6 C  px               16     -0.458393   2 C  px        
    25     -0.458393   3 C  px                7      0.409336   1 N  px        
     3      0.326982   1 N  px               30      0.319967   4 C  px        
    39      0.319967   5 C  px               48     -0.309239   6 C  px        
 
 Vector   26  Occ=0.000000D+00  E= 1.020164D-01
              MO Center= -7.0D-11, -9.1D-08, -2.3D-01, r^2= 8.5D+00
   Bfn.  Coefficient  Atom+Function         Bfn.  Coefficient  Atom+Function  
  ----- ------------  ---------------      ----- ------------  ---------------
    60      1.141444   9 H  s                62     -1.141445  10 H  s         
    56     -0.880597   7 H  s                58      0.880597   8 H  s         
    33      0.868606   4 C  s                42     -0.868607   5 C  s         
    15      0.510222   2 C  s                24     -0.510223   3 C  s         
    35     -0.471626   4 C  py               44     -0.471626   5 C  py        
 
 Vector   27  Occ=0.000000D+00  E= 1.198928D-01
              MO Center= -1.8D-10, -5.6D-07,  1.3D-01, r^2= 8.4D+00
   Bfn.  Coefficient  Atom+Function         Bfn.  Coefficient  Atom+Function  
  ----- ------------  ---------------      ----- ------------  ---------------
    51      1.562891   6 C  s                56      1.162234   7 H  s         
    58      1.162233   8 H  s                15     -1.118325   2 C  s         
    24     -1.118324   3 C  s                64     -1.112177  11 H  s         
     6      0.562281   1 N  s                18     -0.417322   2 C  pz        
    27     -0.417321   3 C  pz               54     -0.366438   6 C  pz        
 
 Vector   28  Occ=0.000000D+00  E= 1.436018D-01
              MO Center=  1.0D-10, -5.8D-05, -1.1D+00, r^2= 7.8D+00
   Bfn.  Coefficient  Atom+Function         Bfn.  Coefficient  Atom+Function  
  ----- ------------  ---------------      ----- ------------  ---------------
    60      1.259608   9 H  s                62      1.259640  10 H  s         
    64     -1.257225  11 H  s                51      0.860441   6 C  s         
    54     -0.827298   6 C  pz               56     -0.751728   7 H  s         
    58     -0.751689   8 H  s                35      0.690208   4 C  py        
    44     -0.690194   5 C  py               17     -0.625395   2 C  py        
 
 Vector   29  Occ=0.000000D+00  E= 1.438701D-01
              MO Center=  7.6D-11,  5.8D-05,  2.6D-01, r^2= 8.3D+00
   Bfn.  Coefficient  Atom+Function         Bfn.  Coefficient  Atom+Function  
  ----- ------------  ---------------      ----- ------------  ---------------
    33      1.379855   4 C  s                42     -1.379877   5 C  s         
    15     -1.223871   2 C  s                24      1.223871   3 C  s         
    56      1.131209   7 H  s                58     -1.131235   8 H  s         
    60      0.907107   9 H  s                62     -0.907064  10 H  s         
    17      0.614566   2 C  py               26      0.614588   3 C  py        
 
 Vector   30  Occ=0.000000D+00  E= 1.931803D-01
              MO Center=  9.7D-11,  2.1D-08,  8.4D-02, r^2= 4.9D+00
   Bfn.  Coefficient  Atom+Function         Bfn.  Coefficient  Atom+Function  
  ----- ------------  ---------------      ----- ------------  ---------------
     6      2.247747   1 N  s                54      1.254734   6 C  pz        
    64      1.060379  11 H  s                51      1.026001   6 C  s         
    17     -0.976079   2 C  py               26      0.976080   3 C  py        
    15     -0.881634   2 C  s                24     -0.881635   3 C  s         
     9     -0.801807   1 N  pz               33     -0.749747   4 C  s         
 
 Vector   31  Occ=0.000000D+00  E= 2.508518D-01
              MO Center= -2.9D-11,  2.1D-07, -5.9D-01, r^2= 5.0D+00
   Bfn.  Coefficient  Atom+Function         Bfn.  Coefficient  Atom+Function  
  ----- ------------  ---------------      ----- ------------  ---------------
    33      2.442472   4 C  s                42     -2.442472   5 C  s         
    53      1.893527   6 C  py               18      1.368738   2 C  pz        
    27     -1.368738   3 C  pz               35      1.148935   4 C  py        
    44      1.148935   5 C  py               56     -0.777780   7 H  s         
    58      0.777780   8 H  s                 8      0.582015   1 N  py        
 
 Vector   32  Occ=0.000000D+00  E= 2.740191D-01
              MO Center=  1.0D-10,  3.4D-07,  2.2D-01, r^2= 4.2D+00
   Bfn.  Coefficient  Atom+Function         Bfn.  Coefficient  Atom+Function  
  ----- ------------  ---------------      ----- ------------  ---------------
    15      2.274335   2 C  s                24     -2.274336   3 C  s         
    36     -1.479976   4 C  pz               45      1.479977   5 C  pz        
     8      1.202736   1 N  py               17      0.981790   2 C  py        
    26      0.981789   3 C  py               53      0.957538   6 C  py        
    60      0.581323   9 H  s                62     -0.581323  10 H  s         
 
 Vector   33  Occ=0.000000D+00  E= 2.762670D-01
              MO Center= -3.3D-11, -4.4D-07, -2.9D-01, r^2= 4.8D+00
   Bfn.  Coefficient  Atom+Function         Bfn.  Coefficient  Atom+Function  
  ----- ------------  ---------------      ----- ------------  ---------------
    51      2.662068   6 C  s                 6     -1.748168   1 N  s         
    36      1.428372   4 C  pz               45      1.428371   5 C  pz        
    18      1.267829   2 C  pz               27      1.267828   3 C  pz        
    35     -1.155788   4 C  py               44      1.155788   5 C  py        
    17      0.819363   2 C  py               26     -0.819364   3 C  py        
 
 Vector   34  Occ=0.000000D+00  E= 4.126694D-01
              MO Center= -7.0D-10,  1.6D-07, -3.7D-02, r^2= 3.8D+00
   Bfn.  Coefficient  Atom+Function         Bfn.  Coefficient  Atom+Function  
  ----- ------------  ---------------      ----- ------------  ---------------
    51     -3.801038   6 C  s                33      3.517138   4 C  s         
    42      3.517138   5 C  s                15     -2.946961   2 C  s         
    24     -2.946961   3 C  s                54     -2.747190   6 C  pz        
    35      2.409816   4 C  py               44     -2.409815   5 C  py        
     6      1.864215   1 N  s                18      1.425844   2 C  pz        
 
 Vector   35  Occ=0.000000D+00  E= 4.227573D-01
              MO Center= -7.1D-11, -2.2D-07,  2.1D-01, r^2= 5.6D+00
   Bfn.  Coefficient  Atom+Function         Bfn.  Coefficient  Atom+Function  
  ----- ------------  ---------------      ----- ------------  ---------------
    53      2.626791   6 C  py               18     -2.209871   2 C  pz        
    27      2.209870   3 C  pz               36     -1.660217   4 C  pz        
    45      1.660216   5 C  pz                8     -1.335059   1 N  py        
    17     -1.286009   2 C  py               26     -1.286009   3 C  py        
    35      0.965494   4 C  py               44      0.965496   5 C  py        
 
 Vector   36  Occ=0.000000D+00  E= 4.543824D-01
              MO Center=  5.9D-10, -3.0D-09, -1.7D-01, r^2= 3.5D+00
   Bfn.  Coefficient  Atom+Function         Bfn.  Coefficient  Atom+Function  
  ----- ------------  ---------------      ----- ------------  ---------------
    12      0.481911   2 C  px               21      0.481911   3 C  px        
    48      0.457787   6 C  px               16     -0.442872   2 C  px        
    25     -0.442872   3 C  px               30      0.444272   4 C  px        
    39      0.444272   5 C  px               52     -0.355593   6 C  px        
    34     -0.283308   4 C  px               43     -0.283308   5 C  px        
 
 Vector   37  Occ=0.000000D+00  E= 4.873020D-01
              MO Center= -5.0D-10,  7.2D-08, -3.0D-01, r^2= 4.3D+00
   Bfn.  Coefficient  Atom+Function         Bfn.  Coefficient  Atom+Function  
  ----- ------------  ---------------      ----- ------------  ---------------
    36      1.853354   4 C  pz               45     -1.853354   5 C  pz        
     8      1.279355   1 N  py               53     -1.279514   6 C  py        
    18      1.186311   2 C  pz               27     -1.186311   3 C  pz        
    35     -1.134291   4 C  py               44     -1.134291   5 C  py        
    17      0.803970   2 C  py               26      0.803970   3 C  py        
 
 Vector   38  Occ=0.000000D+00  E= 5.373156D-01
              MO Center=  1.3D-09, -5.4D-09, -3.3D-02, r^2= 4.1D+00
   Bfn.  Coefficient  Atom+Function         Bfn.  Coefficient  Atom+Function  
  ----- ------------  ---------------      ----- ------------  ---------------
    30      0.555650   4 C  px               34     -0.554147   4 C  px        
    39     -0.555650   5 C  px               43      0.554147   5 C  px        
    12      0.506551   2 C  px               16     -0.508667   2 C  px        
    21     -0.506551   3 C  px               25      0.508667   3 C  px        
 
 Vector   39  Occ=0.000000D+00  E= 5.456258D-01
              MO Center=  4.9D-08,  1.2D-09, -4.1D-01, r^2= 4.0D+00
   Bfn.  Coefficient  Atom+Function         Bfn.  Coefficient  Atom+Function  
  ----- ------------  ---------------      ----- ------------  ---------------
    52      0.791264   6 C  px               48     -0.729327   6 C  px        
    16     -0.689241   2 C  px               25     -0.689241   3 C  px        
    12      0.499981   2 C  px               21      0.499981   3 C  px        
    34      0.224090   4 C  px               43      0.224090   5 C  px        
    30     -0.197445   4 C  px               39     -0.197445   5 C  px        
 
 Vector   40  Occ=0.000000D+00  E= 5.458312D-01
              MO Center= -4.5D-08,  2.1D-08, -1.3D-01, r^2= 3.8D+00
   Bfn.  Coefficient  Atom+Function         Bfn.  Coefficient  Atom+Function  
  ----- ------------  ---------------      ----- ------------  ---------------
     6      0.898272   1 N  s                33      0.556759   4 C  s         
    42      0.556759   5 C  s                36      0.553827   4 C  pz        
    45      0.553827   5 C  pz               17     -0.535571   2 C  py        
    26      0.535571   3 C  py               18     -0.414640   2 C  pz        
    27     -0.414640   3 C  pz               14      0.392210   2 C  pz        
 
 Vector   41  Occ=0.000000D+00  E= 5.560255D-01
              MO Center= -3.6D-09, -1.4D-09,  4.1D-02, r^2= 2.6D+00
   Bfn.  Coefficient  Atom+Function         Bfn.  Coefficient  Atom+Function  
  ----- ------------  ---------------      ----- ------------  ---------------
    33      0.766249   4 C  s                42      0.766249   5 C  s         
    35      0.726317   4 C  py               44     -0.726317   5 C  py        
    47     -0.552156   6 C  s                11     -0.457586   2 C  s         
    20     -0.457586   3 C  s                13     -0.450011   2 C  py        
    22      0.450011   3 C  py               51     -0.410330   6 C  s         
 
 Vector   42  Occ=0.000000D+00  E= 5.756808D-01
              MO Center= -1.4D-09, -1.7D-07, -3.9D-01, r^2= 3.9D+00
   Bfn.  Coefficient  Atom+Function         Bfn.  Coefficient  Atom+Function  
  ----- ------------  ---------------      ----- ------------  ---------------
    53      1.385938   6 C  py               49     -0.634801   6 C  py        
    14     -0.552003   2 C  pz               23      0.552003   3 C  pz        
    36     -0.537829   4 C  pz               45      0.537829   5 C  pz        
    35      0.324779   4 C  py               44      0.324779   5 C  py        
    59     -0.315655   9 H  s                61      0.315655  10 H  s         
 
 Vector   43  Occ=0.000000D+00  E= 5.857083D-01
              MO Center=  4.8D-10,  1.6D-07, -1.0D+00, r^2= 3.7D+00
   Bfn.  Coefficient  Atom+Function         Bfn.  Coefficient  Atom+Function  
  ----- ------------  ---------------      ----- ------------  ---------------
    51      0.653204   6 C  s                36     -0.547105   4 C  pz        
    45     -0.547105   5 C  pz               63     -0.538454  11 H  s         
    47     -0.486621   6 C  s                29     -0.399918   4 C  s         
    38     -0.399918   5 C  s                17     -0.384094   2 C  py        
    26      0.384094   3 C  py               32      0.354740   4 C  pz        
 
 Vector   44  Occ=0.000000D+00  E= 5.967736D-01
              MO Center=  2.5D-10, -6.4D-09,  8.4D-02, r^2= 4.6D+00
   Bfn.  Coefficient  Atom+Function         Bfn.  Coefficient  Atom+Function  
  ----- ------------  ---------------      ----- ------------  ---------------
    16      0.944680   2 C  px               25     -0.944680   3 C  px        
    34     -0.888803   4 C  px               43      0.888803   5 C  px        
    12     -0.556083   2 C  px               21      0.556083   3 C  px        
    30      0.519228   4 C  px               39     -0.519228   5 C  px        
 
 Vector   45  Occ=0.000000D+00  E= 6.128529D-01
              MO Center= -3.9D-10, -3.4D-09,  8.8D-01, r^2= 3.4D+00
   Bfn.  Coefficient  Atom+Function         Bfn.  Coefficient  Atom+Function  
  ----- ------------  ---------------      ----- ------------  ---------------
     6      1.192423   1 N  s                 5      0.679174   1 N  pz        
     9     -0.622410   1 N  pz               17     -0.622308   2 C  py        
    26      0.622308   3 C  py               18     -0.610069   2 C  pz        
    27     -0.610069   3 C  pz               15     -0.599078   2 C  s         
    24     -0.599078   3 C  s                33     -0.575281   4 C  s         
 
 Vector   46  Occ=0.000000D+00  E= 6.263139D-01
              MO Center= -8.9D-10,  1.4D-08, -7.0D-01, r^2= 4.2D+00
   Bfn.  Coefficient  Atom+Function         Bfn.  Coefficient  Atom+Function  
  ----- ------------  ---------------      ----- ------------  ---------------
    52      1.389209   6 C  px               34     -1.188019   4 C  px        
    43     -1.188019   5 C  px               48     -0.617032   6 C  px        
    30      0.559533   4 C  px               39      0.559533   5 C  px        
    16      0.477028   2 C  px               25      0.477028   3 C  px        
     3     -0.284845   1 N  px               12     -0.170856   2 C  px        
 
 Vector   47  Occ=0.000000D+00  E= 6.429216D-01
              MO Center= -2.8D-10,  8.1D-09,  5.5D-01, r^2= 3.8D+00
   Bfn.  Coefficient  Atom+Function         Bfn.  Coefficient  Atom+Function  
  ----- ------------  ---------------      ----- ------------  ---------------
    33      0.678313   4 C  s                42     -0.678313   5 C  s         
    15      0.522336   2 C  s                24     -0.522336   3 C  s         
    18      0.491427   2 C  pz               27     -0.491427   3 C  pz        
    11     -0.459223   2 C  s                20      0.459223   3 C  s         
    32     -0.456680   4 C  pz               41      0.456680   5 C  pz        
 
 Vector   48  Occ=0.000000D+00  E= 7.725468D-01
              MO Center=  1.5D-09, -3.3D-06, -1.5D+00, r^2= 4.3D+00
   Bfn.  Coefficient  Atom+Function         Bfn.  Coefficient  Atom+Function  
  ----- ------------  ---------------      ----- ------------  ---------------
    54      3.906133   6 C  pz               35     -2.674531   4 C  py        
    44      2.674525   5 C  py               33     -2.225708   4 C  s         
    42     -2.225707   5 C  s                64      2.233393  11 H  s         
    51      1.880249   6 C  s                36     -1.687887   4 C  pz        
    45     -1.687884   5 C  pz               60     -1.667748   9 H  s         
 
 Vector   49  Occ=0.000000D+00  E= 7.815063D-01
              MO Center= -2.0D-10,  3.1D-06,  1.2D-01, r^2= 7.1D+00
   Bfn.  Coefficient  Atom+Function         Bfn.  Coefficient  Atom+Function  
  ----- ------------  ---------------      ----- ------------  ---------------
    17      1.986529   2 C  py               26      1.986532   3 C  py        
    35     -1.948152   4 C  py               44     -1.948159   5 C  py        
    56      1.621611   7 H  s                58     -1.621612   8 H  s         
    60      1.529123   9 H  s                62     -1.529119  10 H  s         
    18     -1.243057   2 C  pz               27      1.243060   3 C  pz        
 
 Vector   50  Occ=0.000000D+00  E= 7.937772D-01
              MO Center= -1.9D-09, -1.0D-09,  1.3D+00, r^2= 2.8D+00
   Bfn.  Coefficient  Atom+Function         Bfn.  Coefficient  Atom+Function  
  ----- ------------  ---------------      ----- ------------  ---------------
     7      1.629453   1 N  px                3     -0.923049   1 N  px        
    16     -0.885415   2 C  px               25     -0.885415   3 C  px        
    34      0.575521   4 C  px               43      0.575521   5 C  px        
    52     -0.501834   6 C  px               12      0.180040   2 C  px        
    21      0.180040   3 C  px               48      0.138447   6 C  px        
 
 Vector   51  Occ=0.000000D+00  E= 8.228652D-01
              MO Center=  1.6D-09,  3.7D-05,  1.8D-01, r^2= 7.0D+00
   Bfn.  Coefficient  Atom+Function         Bfn.  Coefficient  Atom+Function  
  ----- ------------  ---------------      ----- ------------  ---------------
    18      1.672373   2 C  pz               27      1.672422   3 C  pz        
    56     -1.529970   7 H  s                58     -1.530047   8 H  s         
    17     -1.336620   2 C  py               26      1.336657   3 C  py        
    64      1.307792  11 H  s                51     -1.149860   6 C  s         
     9     -1.052393   1 N  pz               54      0.944913   6 C  pz        
 
 Vector   52  Occ=0.000000D+00  E= 8.230670D-01
              MO Center=  4.3D-10, -3.6D-05,  5.5D-02, r^2= 7.0D+00
   Bfn.  Coefficient  Atom+Function         Bfn.  Coefficient  Atom+Function  
  ----- ------------  ---------------      ----- ------------  ---------------
    15      1.807681   2 C  s                24     -1.807675   3 C  s         
    33      1.548448   4 C  s                42     -1.548397   5 C  s         
    60      1.277894   9 H  s                62     -1.277858  10 H  s         
    56     -1.228297   7 H  s                58      1.228202   8 H  s         
    36     -0.914897   4 C  pz               45      0.914940   5 C  pz        
 
 Vector   53  Occ=0.000000D+00  E= 8.624675D-01
              MO Center= -6.7D-10, -2.7D-07, -3.5D-02, r^2= 6.2D+00
   Bfn.  Coefficient  Atom+Function         Bfn.  Coefficient  Atom+Function  
  ----- ------------  ---------------      ----- ------------  ---------------
    33      1.798757   4 C  s                42      1.798756   5 C  s         
    51      1.713220   6 C  s                18      1.341900   2 C  pz        
    27      1.341899   3 C  pz                9     -1.104233   1 N  pz        
    64     -1.050508  11 H  s                60     -0.960244   9 H  s         
    62     -0.960244  10 H  s                35     -0.931191   4 C  py        
 
 Vector   54  Occ=0.000000D+00  E= 9.122534D-01
              MO Center= -1.9D-10,  1.2D-07, -8.4D-01, r^2= 4.1D+00
   Bfn.  Coefficient  Atom+Function         Bfn.  Coefficient  Atom+Function  
  ----- ------------  ---------------      ----- ------------  ---------------
    53      4.274297   6 C  py               36     -2.639838   4 C  pz        
    45      2.639837   5 C  pz               15      2.265425   2 C  s         
    24     -2.265425   3 C  s                33      2.018506   4 C  s         
    42     -2.018506   5 C  s                35      1.876156   4 C  py        
    44      1.876156   5 C  py               18     -1.108319   2 C  pz        
 
 Vector   55  Occ=0.000000D+00  E= 9.215794D-01
              MO Center= -3.0D-10, -1.6D-07,  9.8D-01, r^2= 5.4D+00
   Bfn.  Coefficient  Atom+Function         Bfn.  Coefficient  Atom+Function  
  ----- ------------  ---------------      ----- ------------  ---------------
     9      0.985521   1 N  pz               15      0.988374   2 C  s         
    24      0.988374   3 C  s                56     -0.834370   7 H  s         
    58     -0.834370   8 H  s                51      0.654884   6 C  s         
    18     -0.602818   2 C  pz               27     -0.602818   3 C  pz        
    17     -0.574474   2 C  py               26      0.574475   3 C  py        
 
 Vector   56  Occ=0.000000D+00  E= 9.540922D-01
              MO Center= -2.0D-10, -1.1D-08, -4.2D-01, r^2= 3.9D+00
   Bfn.  Coefficient  Atom+Function         Bfn.  Coefficient  Atom+Function  
  ----- ------------  ---------------      ----- ------------  ---------------
    15      3.477054   2 C  s                24      3.477054   3 C  s         
    51     -3.350401   6 C  s                36     -2.135674   4 C  pz        
    45     -2.135674   5 C  pz               18     -1.580286   2 C  pz        
    27     -1.580286   3 C  pz               33     -1.338493   4 C  s         
    42     -1.338494   5 C  s                47      1.223947   6 C  s         
 
 Vector   57  Occ=0.000000D+00  E= 9.910314D-01
              MO Center= -8.0D-11,  2.0D-08,  6.7D-01, r^2= 4.1D+00
   Bfn.  Coefficient  Atom+Function         Bfn.  Coefficient  Atom+Function  
  ----- ------------  ---------------      ----- ------------  ---------------
     8      3.270522   1 N  py               53     -2.832891   6 C  py        
    17      2.703552   2 C  py               26      2.703552   3 C  py        
    36      2.527606   4 C  pz               45     -2.527606   5 C  pz        
    18      1.564374   2 C  pz               27     -1.564374   3 C  pz        
    35     -1.013205   4 C  py               44     -1.013205   5 C  py        
 
 Vector   58  Occ=0.000000D+00  E= 1.055824D+00
              MO Center=  3.9D-10, -8.9D-09, -8.3D-02, r^2= 4.8D+00
   Bfn.  Coefficient  Atom+Function         Bfn.  Coefficient  Atom+Function  
  ----- ------------  ---------------      ----- ------------  ---------------
    33      3.931778   4 C  s                42     -3.931778   5 C  s         
    15     -3.476438   2 C  s                24      3.476438   3 C  s         
    29     -1.176277   4 C  s                38      1.176277   5 C  s         
    11      0.973192   2 C  s                20     -0.973192   3 C  s         
    18      0.960462   2 C  pz               27     -0.960462   3 C  pz        
 
 Vector   59  Occ=0.000000D+00  E= 1.102426D+00
              MO Center=  2.8D-10,  5.6D-08, -2.0D-01, r^2= 4.7D+00
   Bfn.  Coefficient  Atom+Function         Bfn.  Coefficient  Atom+Function  
  ----- ------------  ---------------      ----- ------------  ---------------
    51      4.232339   6 C  s                33     -2.015760   4 C  s         
    42     -2.015759   5 C  s                35     -1.934408   4 C  py        
    44      1.934408   5 C  py               17      1.735102   2 C  py        
    26     -1.735102   3 C  py                6     -0.819487   1 N  s         
    29      0.673925   4 C  s                38      0.673925   5 C  s         
 
 Vector   60  Occ=0.000000D+00  E= 1.134827D+00
              MO Center= -1.4D-11, -6.1D-08, -7.3D-01, r^2= 4.9D+00
   Bfn.  Coefficient  Atom+Function         Bfn.  Coefficient  Atom+Function  
  ----- ------------  ---------------      ----- ------------  ---------------
    33      2.946176   4 C  s                42      2.946176   5 C  s         
    51     -2.476991   6 C  s                15     -1.518794   2 C  s         
    24     -1.518794   3 C  s                47      1.108397   6 C  s         
    17      1.059348   2 C  py               26     -1.059348   3 C  py        
    29     -0.885461   4 C  s                38     -0.885461   5 C  s         
 
 Vector   61  Occ=0.000000D+00  E= 1.218295D+00
              MO Center= -9.2D-12,  1.1D-08,  5.6D-02, r^2= 4.8D+00
   Bfn.  Coefficient  Atom+Function         Bfn.  Coefficient  Atom+Function  
  ----- ------------  ---------------      ----- ------------  ---------------
     8      3.296795   1 N  py               15      2.296862   2 C  s         
    24     -2.296862   3 C  s                35     -2.226127   4 C  py        
    44     -2.226127   5 C  py               18      1.753000   2 C  pz        
    27     -1.753000   3 C  pz               17      1.365743   2 C  py        
    26      1.365743   3 C  py               60      0.755317   9 H  s         
 
 Vector   62  Occ=0.000000D+00  E= 1.384171D+00
              MO Center= -3.9D-11, -1.3D-08, -4.3D-01, r^2= 4.0D+00
   Bfn.  Coefficient  Atom+Function         Bfn.  Coefficient  Atom+Function  
  ----- ------------  ---------------      ----- ------------  ---------------
    51      5.443052   6 C  s                54      5.292545   6 C  pz        
    33     -4.788511   4 C  s                42     -4.788510   5 C  s         
    35     -2.666125   4 C  py               44      2.666125   5 C  py        
     6      2.262332   1 N  s                36     -2.001133   4 C  pz        
    45     -2.001133   5 C  pz               15      1.386277   2 C  s         
 
 Vector   63  Occ=0.000000D+00  E= 1.440315D+00
              MO Center=  8.5D-11,  2.9D-08,  5.3D-01, r^2= 4.5D+00
   Bfn.  Coefficient  Atom+Function         Bfn.  Coefficient  Atom+Function  
  ----- ------------  ---------------      ----- ------------  ---------------
    33      3.152026   4 C  s                42     -3.152027   5 C  s         
    18      2.777445   2 C  pz               27     -2.777445   3 C  pz        
    17     -2.462065   2 C  py               26     -2.462065   3 C  py        
    35      2.388360   4 C  py               44      2.388361   5 C  py        
    15     -2.236476   2 C  s                24      2.236476   3 C  s         
 
 Vector   64  Occ=0.000000D+00  E= 1.772525D+00
              MO Center= -9.6D-12, -5.0D-08,  4.8D-01, r^2= 4.1D+00
   Bfn.  Coefficient  Atom+Function         Bfn.  Coefficient  Atom+Function  
  ----- ------------  ---------------      ----- ------------  ---------------
    51     -8.950017   6 C  s                 6      8.617750   1 N  s         
    33      7.898594   4 C  s                42      7.898593   5 C  s         
    15     -6.466030   2 C  s                24     -6.466030   3 C  s         
    54     -5.502635   6 C  pz               35      4.974674   4 C  py        
    44     -4.974674   5 C  py               17     -3.608771   2 C  py        
 

 center of mass
 --------------
 x =   0.00000000 y =   0.00000000 z =   0.04995438

 moments of inertia (a.u.)
 ------------------
         613.100111299884           0.000000000000           0.000000000000
           0.000000000000         310.421311063594           0.000000000000
           0.000000000000           0.000000000000         302.678800236291
 
     Multipole analysis of the density
     ---------------------------------
 
     L   x y z        total         alpha         beta         nuclear
     -   - - -        -----         -----         ----         -------
     0   0 0 0     -0.000000    -21.000000    -21.000000     42.000000
 
     1   1 0 0      0.000000      0.000000      0.000000      0.000000
     1   0 1 0      0.000000      0.000000      0.000000      0.000000
     1   0 0 1     -0.973484     -0.424254     -0.424254     -0.124975
 
     2   2 0 0    -27.772070    -13.886035    -13.886035      0.000000
     2   1 1 0      0.000000      0.000000      0.000000      0.000000
     2   1 0 1      0.000000      0.000000      0.000000      0.000000
     2   0 2 0    -21.481456   -102.367104   -102.367104    183.252752
     2   0 1 1     -0.000000     -0.000000     -0.000000      0.000000
     2   0 0 2    -27.040045   -102.202311   -102.202311    177.364578
 
                                NWChem TDDFT Module
                                -------------------
 
 
              TDDFT/LDA geometry optimization of Pyridine with 6-31G
 
 
            General Information
            -------------------
           No. of orbitals :     128
            Alpha orbitals :      64
             Beta orbitals :      64
        Alpha frozen cores :       0
         Beta frozen cores :       0
     Alpha frozen virtuals :       0
      Beta frozen virtuals :       0
         Spin multiplicity :       1
    Number of AO functions :      64
        Use of symmetry is : off
      Symmetry adaption is : off
         Schwarz screening :  0.10D-07
 
              XC Information
              --------------
                 Slater Exchange Functional   1.00 local    
               VWN V Correlation Functional   1.00 local    
 
             TDDFT Information
             -----------------
          Calculation type : TDDFT             
         Wavefunction type : Restricted singlets
          No. of electrons :      42
           Alpha electrons :      21
            Beta electrons :      21
              No. of roots :       2
          Max subspacesize :    4400
            Max iterations :     100
               Target root :       1
           Target symmetry : a   
      Symmetry restriction : off
                 Algorithm : Incore multiple tensor contraction
        Davidson threshold :  0.10D-03
 
            Memory Information
            ------------------
          Available GA space size is        5033160704 doubles
          Available MA space size is          19913300 doubles
          Length of a trial vector is          903
          Estimated peak GA usage is          15978332 doubles
          Estimated peak MA usage is              3000 doubles
 
    2 smallest eigenvalue differences (eV) 
--------------------------------------------------------
  No. Spin  Occ  Vir  Irrep   E(Occ)    E(Vir)   E(Diff)
--------------------------------------------------------
    1    1   21   22 a        -0.197    -0.060     3.720
    2    1   21   23 a        -0.197    -0.049     4.030
--------------------------------------------------------

  Entering Davidson iterations
  Restricted singlet excited states

  Iter   NTrls   NConv    DeltaV     DeltaE      Time   
  ----  ------  ------  ---------  ---------  --------- 
    1      2       0     0.75E-01   0.10+100        0.6
    2      4       0     0.14E-01   0.35E-02        0.6
    3      8       0     0.31E-02   0.12E-03        0.9
    4     12       0     0.10E-02   0.42E-05        0.5
    5     16       0     0.41E-03   0.21E-06        0.7
    6     20       1     0.12E-03   0.26E-07        0.6
    7     22       2     0.47E-04   0.25E-08        0.6
  ----  ------  ------  ---------  ---------  --------- 
  Convergence criterion met
 
  Ground state a        -245.988194233292 a.u.
 
  ----------------------------------------------------------------------------
  Root   1 singlet a              0.149791383 a.u.                4.0760 eV 
  ----------------------------------------------------------------------------
     Transition Moments    X  0.00000   Y -0.00000   Z  0.00000
     Transition Moments   XX -0.00000  XY  0.19253  XZ  0.00000
     Transition Moments   YY -0.00000  YZ -0.00000  ZZ  0.00000
     Dipole Oscillator Strength                    0.0000000000
     Electric Quadrupole                           0.0000000007
     Magnetic Dipole                               0.0000000077
     Total Oscillator Strength                     0.0000000083
 
     Occ.   21  a   ---  Virt.   23  a   -0.99980 X
  ----------------------------------------------------------------------------
  Root   2 singlet a              0.151827866 a.u.                4.1314 eV 
  ----------------------------------------------------------------------------
     Transition Moments    X -0.20645   Y  0.00000   Z -0.00000
     Transition Moments   XX  0.00000  XY -0.00000  XZ -0.78799
     Transition Moments   YY -0.00000  YZ -0.00000  ZZ  0.00000
     Dipole Oscillator Strength                    0.0043141138
     Electric Quadrupole                           0.0000000116
     Magnetic Dipole                               0.0000009905
     Total Oscillator Strength                     0.0043151159
 
     Occ.   21  a   ---  Virt.   22  a    0.99763 X
     Occ.   21  a   ---  Virt.   22  a   -0.05225 Y
     Occ.   21  a   ---  Virt.   25  a   -0.07921 X
 
              Target root =      1
          Target symmetry = a   
      Ground state energy =   -245.988194233292
        Excitation energy =      0.149791382914
     Excited state energy =   -245.838402850378
 
  stored tddft:energy   -245.838402850378     
 fn_civecs: 
 /dev/shm/tddftgrad_pyridine_opt.civecs_singlet                                 
                                                                                
                                                                                
                   

  CI vectors are stored in /dev/shm/tddftgrad_pyridine_opt.
 
 
                           NWChem TDDFT Gradient Module
                           ----------------------------
 
 
 /dev/shm/tddftgrad_pyridine_opt.civecs_singlet                                 
                                                                                
                                                                                
                   
              TDDFT/LDA geometry optimization of Pyridine with 6-31G
 
 
 Calculated gradients of:
 Number of Singlet roots   1
 Singlet roots    1 
 
 Start at time  cpu:        9.2s  wall:        8.6s
 
 nroot:                      1
TDDFT Energy Check(  1) =       0.14979138280698


Iterative solution of linear equations
  No. of variables      903
  No. of equations        1
  Maximum subspace       40
        Iterations      250
       Convergence  1.0D-04
        Start time      9.9


   iter   nsub   residual    time
   ----  ------  --------  ---------
     1      1    1.06D+00      10.1
     2      2    4.91D-02      10.3
     3      3    2.28D-02      10.6
     4      4    3.76D-03      10.8
     5      5    1.45D-03      11.1
     6      6    1.89D-04      11.3
     7      7    5.49D-05      11.6
 
     Multipole analysis of the density
     ---------------------------------
 
     L   x y z        total
     -   - - -        -----
     0   0 0 0     -0.000000
 
     1   1 0 0     -0.000000
     1   0 1 0      0.000000
     1   0 0 1      0.090197
 
     2   2 0 0    -29.031808
     2   1 1 0     -0.000000
     2   1 0 1     -0.000000
     2   0 2 0    -22.667950
     2   0 1 1     -0.000000
     2   0 0 2    -22.878379
 
 
     No. of electrons (tr(P*S)):     0.4200000E+02
 


                         Root   1

                         TDDFT ENERGY GRADIENTS

    atom               coordinates                        gradient
                 x          y          z           x          y          z
   1 N       0.000000   0.000000   2.675839   -0.000000   0.000000   0.096658
   2 C       0.000000  -2.180232   1.361874    0.000000   0.026379  -0.090463
   3 C       0.000000   2.180232   1.361874    0.000000  -0.026379  -0.090463
   4 C       0.000000  -2.270861  -1.273505    0.000000  -0.005165   0.053745
   5 C       0.000000   2.270861  -1.273505    0.000000   0.005165   0.053745
   6 C       0.000000   0.000000  -2.615497   -0.000000  -0.000000  -0.015094
   7 H       0.000000  -3.923348   2.485388   -0.000000  -0.002014   0.001123
   8 H       0.000000   3.923348   2.485388   -0.000000   0.002014   0.001123
   9 H       0.000000   4.095410  -2.253372    0.000000   0.001312  -0.005467
  10 H       0.000000  -4.095410  -2.253372    0.000000  -0.001312  -0.005467
  11 H       0.000000   0.000000  -4.687320   -0.000000  -0.000000   0.000560
 
 TDDFT Gradient time  cpu:        5.7s  wall:        5.8s
  no constraints, skipping   0.000000000000000E+000

@ Step       Energy      Delta E   Gmax     Grms     Xrms     Xmax   Walltime
@ ---- ---------------- -------- -------- -------- -------- -------- --------
@    0    -245.83840285  0.0D+00  0.04051  0.01151  0.00000  0.00000     14.3
                                                                    



                                Z-matrix (autoz)
                                -------- 

 Units are Angstrom for bonds and degrees for angles
 
      Type          Name      I     J     K     L     M      Value     Gradient
      ----------- --------  ----- ----- ----- ----- ----- ---------- ----------
    1 Stretch                  1     2                       1.34706    0.01608
    2 Stretch                  1     3                       1.34706    0.01608
    3 Stretch                  2     4                       1.39541   -0.04051
    4 Stretch                  2     7                       1.09742    0.00230
    5 Stretch                  3     5                       1.39541   -0.04051
    6 Stretch                  3     8                       1.09742    0.00230
    7 Stretch                  4     6                       1.39584   -0.00279
    8 Stretch                  4    10                       1.09594    0.00374
    9 Stretch                  5     6                       1.39584   -0.00279
   10 Stretch                  5     9                       1.09594    0.00374
   11 Stretch                  6    11                       1.09636   -0.00056
   12 Bend                     1     2     4               123.04577    0.01679
   13 Bend                     1     2     7               116.12026   -0.00831
   14 Bend                     1     3     5               123.04577    0.01679
   15 Bend                     1     3     8               116.12026   -0.00831
   16 Bend                     2     1     3               117.84762   -0.03785
   17 Bend                     2     4     6               118.61188    0.00404
   18 Bend                     2     4    10               120.20740    0.00028
   19 Bend                     3     5     6               118.61188    0.00404
   20 Bend                     3     5     9               120.20740    0.00028
   21 Bend                     4     2     7               120.83398   -0.00848
   22 Bend                     4     6     5               118.83709   -0.00381
   23 Bend                     4     6    11               120.58146    0.00191
   24 Bend                     5     3     8               120.83398   -0.00848
   25 Bend                     5     6    11               120.58146    0.00191
   26 Bend                     6     4    10               121.18072   -0.00432
   27 Bend                     6     5     9               121.18072   -0.00432
   28 Torsion                  1     2     4     6           0.00000   -0.00000
   29 Torsion                  1     2     4    10         180.00000    0.00000
   30 Torsion                  1     3     5     6           0.00000    0.00000
   31 Torsion                  1     3     5     9         180.00000   -0.00000
[...]
   21 Bend                     4     2     7               126.34929    0.00010
   22 Bend                     4     6     5               123.46968   -0.00008
   23 Bend                     4     6    11               118.26530    0.00004
   24 Bend                     5     3     8               126.34853    0.00010
   25 Bend                     5     6    11               118.26502    0.00004
   26 Bend                     6     4    10               123.55353    0.00002
   27 Bend                     6     5     9               123.55403    0.00002
   28 Torsion                  1     2     4     6           0.00000   -0.00000
   29 Torsion                  1     2     4    10         180.00000   -0.00000
   30 Torsion                  1     3     5     6          -0.00005   -0.00000
   31 Torsion                  1     3     5     9        -179.99994   -0.00000
   32 Torsion                  2     1     3     5           0.00000    0.00000
   33 Torsion                  2     1     3     8        -179.99993    0.00000
   34 Torsion                  2     4     6     5          -0.00006    0.00000
   35 Torsion                  2     4     6    11         180.00000    0.00000
   36 Torsion                  3     1     2     4           0.00000    0.00000
   37 Torsion                  3     1     2     7         180.00000    0.00000
   38 Torsion                  3     5     6     4           0.00006   -0.00000
   39 Torsion                  3     5     6    11        -180.00000    0.00000
   40 Torsion                  4     6     5     9         179.99995   -0.00000
   41 Torsion                  5     6     4    10        -180.00000    0.00000
   42 Torsion                  6     4     2     7        -180.00000   -0.00000
   43 Torsion                  6     5     3     8         179.99992   -0.00000
   44 Torsion                  7     2     4    10          -0.00008   -0.00000
   45 Torsion                  8     3     5     9           0.00000   -0.00000
   46 Torsion                  9     5     6    11          -0.00008    0.00000
   47 Torsion                 10     4     6    11           0.00006   -0.00000
 

      ----------------------
      Optimization converged
      ----------------------


  Step       Energy      Delta E   Gmax     Grms     Xrms     Xmax   Walltime
  ---- ---------------- -------- -------- -------- -------- -------- --------
@    5    -245.86111276  6.8D-06  0.00038  0.00012  0.00041  0.00121     79.6
                                     ok       ok       ok       ok  



                                Z-matrix (autoz)
                                -------- 

 Units are Angstrom for bonds and degrees for angles
 
      Type          Name      I     J     K     L     M      Value     Gradient
      ----------- --------  ----- ----- ----- ----- ----- ---------- ----------
    1 Stretch                  1     2                       1.31938    0.00032
    2 Stretch                  1     3                       1.31937    0.00032
    3 Stretch                  2     4                       1.45920    0.00011
    4 Stretch                  2     7                       1.08835    0.00001
    5 Stretch                  3     5                       1.45920    0.00011
    6 Stretch                  3     8                       1.08835    0.00001
    7 Stretch                  4     6                       1.39305    0.00038
    8 Stretch                  4    10                       1.09039    0.00013
    9 Stretch                  5     6                       1.39307    0.00038
   10 Stretch                  5     9                       1.09039    0.00013
   11 Stretch                  6    11                       1.09867   -0.00023
   12 Bend                     1     2     4               114.03717   -0.00006
   13 Bend                     1     2     7               119.61355   -0.00004
   14 Bend                     1     3     5               114.03823   -0.00006
   15 Bend                     1     3     8               119.61324   -0.00004
   16 Bend                     2     1     3               133.19148    0.00011
   17 Bend                     2     4     6               117.63229    0.00005
   18 Bend                     2     4    10               118.81418   -0.00007
   19 Bend                     3     5     6               117.63116    0.00005
   20 Bend                     3     5     9               118.81481   -0.00006
   21 Bend                     4     2     7               126.34929    0.00010
   22 Bend                     4     6     5               123.46968   -0.00008
   23 Bend                     4     6    11               118.26530    0.00004
   24 Bend                     5     3     8               126.34853    0.00010
   25 Bend                     5     6    11               118.26502    0.00004
   26 Bend                     6     4    10               123.55353    0.00002
   27 Bend                     6     5     9               123.55403    0.00002
   28 Torsion                  1     2     4     6           0.00000   -0.00000
   29 Torsion                  1     2     4    10         180.00000   -0.00000
   30 Torsion                  1     3     5     6          -0.00005   -0.00000
   31 Torsion                  1     3     5     9        -179.99994   -0.00000
   32 Torsion                  2     1     3     5           0.00000    0.00000
   33 Torsion                  2     1     3     8        -179.99993    0.00000
   34 Torsion                  2     4     6     5          -0.00006    0.00000
   35 Torsion                  2     4     6    11         180.00000    0.00000
   36 Torsion                  3     1     2     4           0.00000    0.00000
   37 Torsion                  3     1     2     7         180.00000    0.00000
   38 Torsion                  3     5     6     4           0.00006   -0.00000
   39 Torsion                  3     5     6    11        -180.00000    0.00000
   40 Torsion                  4     6     5     9         179.99995   -0.00000
   41 Torsion                  5     6     4    10        -180.00000    0.00000
   42 Torsion                  6     4     2     7        -180.00000   -0.00000
   43 Torsion                  6     5     3     8         179.99992   -0.00000
   44 Torsion                  7     2     4    10          -0.00008   -0.00000
   45 Torsion                  8     3     5     9           0.00000   -0.00000
   46 Torsion                  9     5     6    11          -0.00008    0.00000
   47 Torsion                 10     4     6    11           0.00006   -0.00000
 
 
 
                         Geometry "geometry" -> "geometry"
                         ---------------------------------
 
 Output coordinates in angstroms (scale by  1.889725989 to convert to a.u.)
 
  No.       Tag          Charge          X              Y              Z
 ---- ---------------- ---------- -------------- -------------- --------------
    1 N                    7.0000    -0.00000029     0.00000129     1.27495944
    2 C                    6.0000     0.00000000    -1.21083175     0.75088252
    3 C                    6.0000    -0.00000017     1.21082305     0.75087903
    4 C                    6.0000    -0.00000036    -1.22695445    -0.70822844
    5 C                    6.0000    -0.00000072     1.22696432    -0.70823185
    6 C                    6.0000    -0.00000014    -0.00000205    -1.36791769
    7 H                    1.0000    -0.00000000    -2.08022504     1.40559780
    8 H                    1.0000     0.00000067     2.08021802     1.40559493
    9 H                    1.0000     0.00000029     2.18810004    -1.22317816
   10 H                    1.0000     0.00000063    -2.18809027    -1.22317694
   11 H                    1.0000     0.00000010    -0.00000317    -2.46659106
 
      Atomic Mass 
      ----------- 
 
      N                 14.003070
      C                 12.000000
      H                  1.007825
 

 Effective nuclear repulsion energy (a.u.)     204.2911883016

            Nuclear Dipole moment (a.u.) 
            ----------------------------
        X                 Y               Z
 ---------------- ---------------- ----------------
    -0.0000164367     0.0000064037    -1.6492318869
 
 
                Final and change from initial internal coordinates
                --------------------------------------------------
 


                                Z-matrix (autoz)
                                -------- 

 Units are Angstrom for bonds and degrees for angles
 
      Type          Name      I     J     K     L     M      Value       Change
      ----------- --------  ----- ----- ----- ----- ----- ---------- ----------
    1 Stretch                  1     2                       1.31938   -0.02767
    2 Stretch                  1     3                       1.31937   -0.02768
    3 Stretch                  2     4                       1.45920    0.06379
    4 Stretch                  2     7                       1.08835   -0.00907
    5 Stretch                  3     5                       1.45920    0.06379
    6 Stretch                  3     8                       1.08835   -0.00907
    7 Stretch                  4     6                       1.39305   -0.00278
    8 Stretch                  4    10                       1.09039   -0.00554
    9 Stretch                  5     6                       1.39307   -0.00277
   10 Stretch                  5     9                       1.09039   -0.00555
   11 Stretch                  6    11                       1.09867    0.00231
   12 Bend                     1     2     4               114.03717   -9.00860
   13 Bend                     1     2     7               119.61355    3.49329
   14 Bend                     1     3     5               114.03823   -9.00754
   15 Bend                     1     3     8               119.61324    3.49298
   16 Bend                     2     1     3               133.19148   15.34386
   17 Bend                     2     4     6               117.63229   -0.97959
   18 Bend                     2     4    10               118.81418   -1.39322
   19 Bend                     3     5     6               117.63116   -0.98072
   20 Bend                     3     5     9               118.81481   -1.39259
   21 Bend                     4     2     7               126.34929    5.51531
   22 Bend                     4     6     5               123.46968    4.63259
   23 Bend                     4     6    11               118.26530   -2.31615
   24 Bend                     5     3     8               126.34853    5.51455
   25 Bend                     5     6    11               118.26502   -2.31643
   26 Bend                     6     4    10               123.55353    2.37281
   27 Bend                     6     5     9               123.55403    2.37331
   28 Torsion                  1     2     4     6           0.00000    0.00000
   29 Torsion                  1     2     4    10         180.00000    0.00000
   30 Torsion                  1     3     5     6          -0.00005   -0.00005
   31 Torsion                  1     3     5     9        -179.99994    0.00006
   32 Torsion                  2     1     3     5           0.00000    0.00000
   33 Torsion                  2     1     3     8        -179.99993    0.00007
   34 Torsion                  2     4     6     5          -0.00006   -0.00006
   35 Torsion                  2     4     6    11         180.00000    0.00000
   36 Torsion                  3     1     2     4           0.00000    0.00000
   37 Torsion                  3     1     2     7         180.00000    0.00000
   38 Torsion                  3     5     6     4           0.00006    0.00006
   39 Torsion                  3     5     6    11        -180.00000    0.00000
   40 Torsion                  4     6     5     9         179.99995   -0.00005
   41 Torsion                  5     6     4    10        -180.00000    0.00000
   42 Torsion                  6     4     2     7        -180.00000    0.00000
   43 Torsion                  6     5     3     8         179.99992   -0.00008
   44 Torsion                  7     2     4    10          -0.00008   -0.00008
   45 Torsion                  8     3     5     9           0.00000    0.00000
   46 Torsion                  9     5     6    11          -0.00008   -0.00008
   47 Torsion                 10     4     6    11           0.00006    0.00006
 
 ==============================================================================
                                internuclear distances
 ------------------------------------------------------------------------------
       center one      |      center two      | atomic units |  angstroms
 ------------------------------------------------------------------------------
    2 C                |   1 N                |     2.49327  |     1.31938
    3 C                |   1 N                |     2.49326  |     1.31937
    4 C                |   2 C                |     2.75749  |     1.45920
    5 C                |   3 C                |     2.75749  |     1.45920
    6 C                |   4 C                |     2.63249  |     1.39305
    6 C                |   5 C                |     2.63251  |     1.39307
    7 H                |   2 C                |     2.05668  |     1.08835
    8 H                |   3 C                |     2.05668  |     1.08835
    9 H                |   5 C                |     2.06054  |     1.09039
   10 H                |   4 C                |     2.06054  |     1.09039
   11 H                |   6 C                |     2.07619  |     1.09867
 ------------------------------------------------------------------------------
                         number of included internuclear distances:         11
 ==============================================================================



 ==============================================================================
                                 internuclear angles
 ------------------------------------------------------------------------------
        center 1       |       center 2       |       center 3       |  degrees
 ------------------------------------------------------------------------------
    2 C                |   1 N                |   3 C                |   133.19
    1 N                |   2 C                |   4 C                |   114.04
    1 N                |   2 C                |   7 H                |   119.61
    4 C                |   2 C                |   7 H                |   126.35
    1 N                |   3 C                |   5 C                |   114.04
    1 N                |   3 C                |   8 H                |   119.61
    5 C                |   3 C                |   8 H                |   126.35
    2 C                |   4 C                |   6 C                |   117.63
    2 C                |   4 C                |  10 H                |   118.81
    6 C                |   4 C                |  10 H                |   123.55
    3 C                |   5 C                |   6 C                |   117.63
    3 C                |   5 C                |   9 H                |   118.81
    6 C                |   5 C                |   9 H                |   123.55
    4 C                |   6 C                |   5 C                |   123.47
    4 C                |   6 C                |  11 H                |   118.27
    5 C                |   6 C                |  11 H                |   118.27
 ------------------------------------------------------------------------------
                            number of included internuclear angles:         16
 ==============================================================================




 Task  times  cpu:       89.8s     wall:       77.4s
 
 
                                NWChem Input Module
                                -------------------
 
 
 Summary of allocated global arrays
-----------------------------------
  No active global arrays



                         GA Statistics for process    0
                         ------------------------------

       create   destroy   get      put      acc     scatter   gather  read&inc
calls: 7157     7157     9.64e+04 4.34e+04 5.58e+04 1264        0     2080     
number of processes/call -9.04e+13 -9.91e+13 9.21e+13 0.00e+00 0.00e+00
bytes total:             1.78e+08 1.47e+07 9.75e+07 1.44e+02 0.00e+00 1.66e+04
bytes remote:            1.59e+08 1.05e+07 9.20e+07 -2.45e+03 0.00e+00 0.00e+00
Max memory consumed for GA by this process: 560352 bytes
 
MA_summarize_allocated_blocks: starting scan ...
heap block 'gridpts', handle 105, address 0x1160f240:
	type of elements:		double precision
	number of elements:		6291456
	address of client space:	0x1160f2c0
	index for client space:		17699453
	total number of bytes:		50331784
MA_summarize_allocated_blocks: scan completed: 1 heap block, 0 stack blocks
MA usage statistics:

	allocation statistics:
					      heap	     stack
					      ----	     -----
	current number of blocks	         1	         0
	maximum number of blocks	        21	        99
	current total bytes		  50331784	         0
	maximum total bytes		  50800240	  30147128
	maximum total K-bytes		     50801	     30148
	maximum total M-bytes		        51	        31
 
 
                                     CITATION
                                     --------
                Please cite the following reference when publishing
                           results obtained with NWChem:
 
                 M. Valiev, E.J. Bylaska, N. Govind, K. Kowalski,
              T.P. Straatsma, H.J.J. van Dam, D. Wang, J. Nieplocha,
                        E. Apra, T.L. Windus, W.A. de Jong
                 "NWChem: a comprehensive and scalable open-source
                  solution for large scale molecular simulations"
                      Comput. Phys. Commun. 181, 1477 (2010)
                           doi:10.1016/j.cpc.2010.04.018
 
                                      AUTHORS
                                      -------
     E. Apra, E. J. Bylaska, N. Govind, K. Kowalski, M. Valiev, W. A. de Jong,
      T. P. Straatsma, H. J. J. van Dam, D. Wang, T. L. Windus, N. P. Bauman,
       A. Panyala, J. Hammond, J. Autschbach, K. Bhaskaran-Nair, J. Brabec,
    K. Lopata, S. A. Fischer, S. Krishnamoorthy, M. Jacquelin, W. Ma, M. Klemm,
       O. Villa, Y. Chen, V. Anisimov, F. Aquino, S. Hirata, M. T. Hackler,
           Eric Hermes, L. Jensen, J. E. Moore, J. C. Becca, V. Konjkov,
            D. Mejia-Rodriguez, T. Risthaus, M. Malagoli, A. Marenich,
   A. Otero-de-la-Roza, J. Mullin, P. Nichols, R. Peverati, J. Pittner, Y. Zhao,
        P.-D. Fan, A. Fonari, M. J. Williamson, R. J. Harrison, J. R. Rehr,
      M. Dupuis, D. Silverstein, D. M. A. Smith, J. Nieplocha, V. Tipparaju,
      M. Krishnan, B. E. Van Kuiken, A. Vazquez-Mayagoitia, M. Swart, Q. Wu,
   T. Van Voorhis, A. A. Auer, M. Nooijen, L. D. Crosby, E. Brown, G. Cisneros,
     G. I. Fann, H. Fruchtl, J. Garza, K. Hirao, R. A. Kendall, J. A. Nichols,
       K. Tsemekhman, K. Wolinski, J. Anchell, D. E. Bernholdt, P. Borowski,
       T. Clark, D. Clerc, H. Dachsel, M. J. O. Deegan, K. Dyall, D. Elwood,
      E. Glendening, M. Gutowski, A. C. Hess, J. Jaffe, B. G. Johnson, J. Ju,
        R. Kobayashi, R. Kutteh, Z. Lin, R. Littlefield, X. Long, B. Meng,
      T. Nakajima, S. Niu, L. Pollack, M. Rosing, K. Glaesemann, G. Sandrone,
      M. Stave, H. Taylor, G. Thomas, J. H. van Lenthe, A. T. Wong, Z. Zhang.
       Aggregate GFloating-point ops:   1683.    
        Aggregate GFLOPS (Real_time):   21.13    
        Aggregate GFLOPS (Proc_time):   18.33    
                    Average   GFLOPS:  0.1101    
                    Max       GFLOPS:  0.2924    
                    Min       GFLOPS:  3.5417E-02

 Total times  cpu:       91.7s     wall:       79.7s
