All connections between all procs tested: SUCCESS
 argument  1 = auh2o.nw



============================== echo of input deck ==============================
# This input exposed bug in freeze core atomic for centers with ECPs
echo

start Au+(H2O)2
title "Au+(H2O)2, H2O aVTZ using optimal MP2/aVDZ geometry"

charge 1  # Overall +1 charge

geometry

symmetry group C2

Au      0.0         0.0         0.009361
O       0.0         2.036904    0.009358
H       0.125560    2.461223   -0.856506
H      -0.776831    2.461225    0.411874
end

basis  spherical
  Au library LANL2DZ_ECP
  H  library 6-31g
  O  library 6-31g
end

ecp spherical
  Au library LANL2DZ_ECP
end

mp2
 freeze core atomic
end

task mp2         # Perform a single point MP2
================================================================================


                                         
                                         


              Northwest Computational Chemistry Package (NWChem) 6.3
              ------------------------------------------------------


                    Environmental Molecular Sciences Laboratory
                       Pacific Northwest National Laboratory
                                Richland, WA 99352

                              Copyright (c) 1994-2013
                       Pacific Northwest National Laboratory
                            Battelle Memorial Institute

             NWChem is an open-source computational chemistry package
                        distributed under the terms of the
                      Educational Community License (ECL) 2.0
             A copy of the license is included with this distribution
                              in the LICENSE.TXT file

                                  ACKNOWLEDGMENT
                                  --------------

            This software and its documentation were developed at the
            EMSL at Pacific Northwest National Laboratory, a multiprogram
            national laboratory, operated for the U.S. Department of Energy
            by Battelle under Contract Number DE-AC05-76RL01830. Support
            for this work was provided by the Department of Energy Office
            of Biological and Environmental Research, Office of Basic
            Energy Sciences, and the Office of Advanced Scientific Computing.


           Job information
           ---------------

    hostname        = arcen
    program         = /home/d3y133/nwchem-dev/nwchem-dev-2013-09-10/QA/../bin/LINUX64/nwchem
    date            = Tue Sep 10 14:39:36 2013

    compiled        = Tue_Sep_10_14:29:07_2013
    source          = /home/d3y133/nwchem-dev/nwchem-dev-2013-09-10
    nwchem branch   = Development
    nwchem revision = 24566
    ga revision     = 10418
    input           = auh2o.nw
    prefix          = Au+(H2O)2.
    data base       = /home/d3y133/nwchem-dev/nwchem-dev-2013-09-10/QA/scratchdir/Au+(H2O)2.db
    status          = startup
    nproc           =        4
    time left       =     -1s



           Memory information
           ------------------

    heap     =   13107201 doubles =    100.0 Mbytes
    stack    =   13107201 doubles =    100.0 Mbytes
    global   =   26214400 doubles =    200.0 Mbytes (distinct from heap & stack)
    total    =   52428802 doubles =    400.0 Mbytes
    verify   = yes
    hardfail = no 


           Directory information
           ---------------------

  0 permanent = /home/d3y133/nwchem-dev/nwchem-dev-2013-09-10/QA/scratchdir
  0 scratch   = /home/d3y133/nwchem-dev/nwchem-dev-2013-09-10/QA/scratchdir




                                NWChem Input Module
                                -------------------


                Au+(H2O)2, H2O aVTZ using optimal MP2/aVDZ geometry
                ---------------------------------------------------

 Scaling coordinates for geometry "geometry" by  1.889725989
 (inverse scale =  0.529177249)

 Turning off AUTOSYM since
 SYMMETRY directive was detected!


          ------
          auto-z
          ------
  Looking for out-of-plane bends


                             Geometry "geometry" -> ""
                             -------------------------

 Output coordinates in angstroms (scale by  1.889725989 to convert to a.u.)

  No.       Tag          Charge          X              Y              Z
 ---- ---------------- ---------- -------------- -------------- --------------
    1 Au                  79.0000     0.00000000     0.00000000     0.00936117
    2 O                    8.0000     0.00000000     2.03690400     0.00935817
    3 O                    8.0000     0.00000000    -2.03690400     0.00935817
    4 H                    1.0000     0.12556000     2.46122300    -0.85650583
    5 H                    1.0000    -0.12556000    -2.46122300    -0.85650583
    6 H                    1.0000    -0.77683100     2.46122500     0.41187417
    7 H                    1.0000     0.77683100    -2.46122500     0.41187417

      Atomic Mass 
      ----------- 

      Au               196.966600
      O                 15.994910
      H                  1.007825


 Effective nuclear repulsion energy (a.u.)     422.9176493557

            Nuclear Dipole moment (a.u.) 
            ----------------------------
        X                 Y               Z
 ---------------- ---------------- ----------------
     0.0000000000     0.0000000000     0.0000000000

      Symmetry information
      --------------------

 Group name             C2        
 Group number              4
 Group order               2
 No. of unique centers     4

      Symmetry unique atoms

     1    2    4    6



                                Z-matrix (autoz)
                                -------- 

 Units are Angstrom for bonds and degrees for angles

      Type          Name      I     J     K     L     M      Value
      ----------- --------  ----- ----- ----- ----- ----- ----------
    1 Stretch                  1     2                       2.03690
    2 Stretch                  1     3                       2.03690
    3 Stretch                  2     4                       0.97238
    4 Stretch                  2     6                       0.97239
    5 Stretch                  3     5                       0.97238
    6 Stretch                  3     7                       0.97239
    7 Bend                     1     2     4               115.87255
    8 Bend                     1     2     6               115.87253
    9 Bend                     1     3     5               115.87255
   10 Bend                     1     3     7               115.87253
   11 Bend                     2     3     5               115.87246
   12 Bend                     2     3     7               115.87257
   13 Bend                     3     2     4               115.87246
   14 Bend                     3     2     6               115.87257
   15 Bend                     4     2     6               106.34015
   16 Bend                     5     3     7               106.34015
   17 Torsion                  4     2     3     5         -16.50203
   18 Torsion                  4     2     3     7         109.13997
   19 Torsion                  2     4     1     3         179.99993
   20 Torsion                  5     3     2     6         109.13997
   21 Torsion                  2     1     5     3         179.99993
   22 Torsion                  6     2     3     7        -125.21802
   23 Torsion                  2     6     1     3        -179.99955
   24 Torsion                  2     1     7     3        -179.99955


            XYZ format geometry
            -------------------
     7
 geometry
 Au                    0.00000000     0.00000000     0.00936117
 O                     0.00000000     2.03690400     0.00935817
 O                     0.00000000    -2.03690400     0.00935817
 H                     0.12556000     2.46122300    -0.85650583
 H                    -0.12556000    -2.46122300    -0.85650583
 H                    -0.77683100     2.46122500     0.41187417
 H                     0.77683100    -2.46122500     0.41187417

 ==============================================================================
                                internuclear distances
 ------------------------------------------------------------------------------
       center one      |      center two      | atomic units |  angstroms
 ------------------------------------------------------------------------------
    2 O                |   1 Au               |     3.84919  |     2.03690
    3 O                |   1 Au               |     3.84919  |     2.03690
    4 H                |   2 O                |     1.83754  |     0.97238
    5 H                |   3 O                |     1.83754  |     0.97238
    6 H                |   2 O                |     1.83754  |     0.97239
    7 H                |   3 O                |     1.83754  |     0.97239
 ------------------------------------------------------------------------------
                         number of included internuclear distances:          6
 ==============================================================================



 ==============================================================================
                                 internuclear angles
 ------------------------------------------------------------------------------
        center 1       |       center 2       |       center 3       |  degrees
 ------------------------------------------------------------------------------
    2 O                |   1 Au               |   3 O                |   180.00
    1 Au               |   2 O                |   4 H                |   115.87
    1 Au               |   2 O                |   6 H                |   115.87
    4 H                |   2 O                |   6 H                |   106.34
    1 Au               |   3 O                |   5 H                |   115.87
    1 Au               |   3 O                |   7 H                |   115.87
    5 H                |   3 O                |   7 H                |   106.34
 ------------------------------------------------------------------------------
                            number of included internuclear angles:          7
 ==============================================================================



  library name resolved from: environment
  library file name is: </home/d3y133/nwchem-dev/nwchem-dev-2013-09-10/QA/../src/basis/libraries/>
  

 **** WARNING Zero Coefficient **** on atom "              Au"
 angular momentum value: 0  standard basis set name: "LANL2DZ ECP"
 input line that generated warning:
  1199:       0.2826000              0.0000000              1.3064399
  
                      Basis "ao basis" -> "" (spherical)
                      -----
  Au (Gold)
  ---------
            Exponent  Coefficients 
       -------------- ---------------------------------------------------------
  1 S  2.80900000E+00 -1.202156
  1 S  1.59500000E+00  1.674158
  1 S  5.32700000E-01  0.352659

  2 S  2.80900000E+00  1.160848
  2 S  1.59500000E+00 -1.864285
  2 S  5.32700000E-01 -1.035623
  2 S  2.82600000E-01  1.306440

  3 S  5.98000000E-02  1.000000

  4 P  3.68400000E+00 -0.280268
  4 P  1.66600000E+00  0.781840
  4 P  5.98900000E-01  0.480478

  5 P  6.83800000E-01 -0.095208
  5 P  9.77000000E-02  1.029915

  6 P  2.79000000E-02  1.000000

  7 D  1.28700000E+00  0.584427
  7 D  4.33500000E-01  0.529816

  8 D  1.39600000E-01  1.000000

  H (Hydrogen)
  ------------
            Exponent  Coefficients 
       -------------- ---------------------------------------------------------
  1 S  1.87311370E+01  0.033495
  1 S  2.82539370E+00  0.234727
  1 S  6.40121700E-01  0.813757

  2 S  1.61277800E-01  1.000000

  O (Oxygen)
  ----------
            Exponent  Coefficients 
       -------------- ---------------------------------------------------------
  1 S  5.48467170E+03  0.001831
  1 S  8.25234950E+02  0.013950
  1 S  1.88046960E+02  0.068445
  1 S  5.29645000E+01  0.232714
  1 S  1.68975700E+01  0.470193
  1 S  5.79963530E+00  0.358521

  2 S  1.55396160E+01 -0.110778
  2 S  3.59993360E+00 -0.148026
  2 S  1.01376180E+00  1.130767

  3 P  1.55396160E+01  0.070874
  3 P  3.59993360E+00  0.339753
  3 P  1.01376180E+00  0.727159

  4 S  2.70005800E-01  1.000000

  5 P  2.70005800E-01  1.000000



 Summary of "ao basis" -> "" (spherical)
 ------------------------------------------------------------------------------
       Tag                 Description            Shells   Functions and Types
 ---------------- ------------------------------  ------  ---------------------
 Au                       LANL2DZ ECP                8       22   3s3p2d
 H                           6-31g                   2        2   2s
 O                           6-31g                   5        9   3s2p


  library name resolved from: environment
  library file name is: </home/d3y133/nwchem-dev/nwchem-dev-2013-09-10/QA/../src/basis/libraries/>
  
                 ECP       "ecp basis" -> "" (spherical)
                -----
  Au (Gold) Replaces    60 electrons
  ----------------------------------
          R-exponent    Exponent     Coefficients 
         ------------ ---------------------------------------------------------
  1 U L      1.00      622.628796     -60.000000
  1 U L      2.00      136.284361    -555.529231
  1 U L      2.00       33.154978    -168.001979
  1 U L      2.00        9.989490     -63.039988
  1 U L      2.00        3.048131      -4.251668

  2 U-s      0.00      194.737430       3.000000
  2 U-s      1.00      351.532745      38.602088
  2 U-s      2.00      122.327040     864.837073
  2 U-s      2.00       32.091462     374.993552
  2 U-s      2.00        5.245181     289.791010
  2 U-s      2.00        4.491622    -152.453277

  3 U-p      0.00      420.615880       2.000000
  3 U-p      1.00      109.441782      73.888563
  3 U-p      2.00       34.171428     326.672987
  3 U-p      2.00        5.987975     126.581459

  4 U-d      0.00      219.266616       3.000000
  4 U-d      1.00      122.729779      55.679315
  4 U-d      2.00       63.106337     449.198734
  4 U-d      2.00       18.368452     215.026909
  4 U-d      2.00        4.497284      64.084100

  5 U-f      0.00      108.550604       4.000000
  5 U-f      1.00       56.479553      51.806534
  5 U-f      2.00       29.206916     231.218311
  5 U-f      2.00        9.544054     119.004739
  5 U-f      2.00        2.896512      15.342419

                                 NWChem SCF Module
                                 -----------------


                Au+(H2O)2, H2O aVTZ using optimal MP2/aVDZ geometry



  ao basis        = "ao basis"
  functions       =    48
  atoms           =     7
  closed shells   =    19
  open shells     =     0
  charge          =   1.00
  wavefunction    = RHF 
  input vectors   = atomic
  output vectors  = /home/d3y133/nwchem-dev/nwchem-dev-2013-09-10/QA/scratchdir/Au+(H2O)2.movecs
  use symmetry    = T
  symmetry adapt  = T


 Summary of "ao basis" -> "ao basis" (spherical)
 ------------------------------------------------------------------------------
       Tag                 Description            Shells   Functions and Types
 ---------------- ------------------------------  ------  ---------------------
 Au                       LANL2DZ ECP                8       22   3s3p2d
 H                           6-31g                   2        2   2s
 O                           6-31g                   5        9   3s2p


      Symmetry analysis of basis
      --------------------------

        a          25
        b          23


 Forming initial guess at       1.1s


      Superposition of Atomic Density Guess
      -------------------------------------

 Sum of atomic energies:        -310.11795317

 Renormalizing density from      39.00 to     38

      Non-variational initial energy
      ------------------------------

 Total energy =    -283.136277
 1-e energy   =    -674.798283
 2-e energy   =     266.768149
 HOMO         =      -0.779413
 LUMO         =      -0.432040


      Symmetry analysis of molecular orbitals - initial
      -------------------------------------------------

  Numbering of irreducible representations: 

     1 a           2 b       

  Orbital symmetries:

     1 a           2 b           3 a           4 b           5 a       
     6 b           7 a           8 b           9 a          10 b       
    11 a          12 b          13 a          14 b          15 a       
    16 b          17 a          18 b          19 a          20 a       
    21 b          22 a          23 b          24 a          25 a       
    26 b          27 b          28 a          29 b       


 Starting SCF solution at       1.3s



 ----------------------------------------------
         Quadratically convergent ROHF

 Convergence threshold     :          1.000E-06
 Maximum no. of iterations :           30
 Final Fock-matrix accuracy:          1.000E-08
 ----------------------------------------------


 Integral file          = /home/d3y133/nwchem-dev/nwchem-dev-2013-09-10/QA/scratchdir/Au+(H2O)2.aoints.0
 Record size in doubles =  65536        No. of integs per rec  =  43688
 Max. records in memory =      5        Max. records in file   =   7798
 No. of bits per label  =      8        No. of bits per value  =     64


 #quartets = 2.821D+04 #integrals = 2.405D+05 #direct =  0.0% #cached =100.0%


File balance: exchanges=     0  moved=     0  time=   0.0


              iter       energy          gnorm     gmax       time
             ----- ------------------- --------- --------- --------
                 1     -286.0971995849  1.83D+00  4.69D-01      0.3
                 2     -286.3040194726  3.26D-01  1.11D-01      0.3
                 3     -286.3149010145  1.18D-01  2.82D-02      0.3
                 4     -286.3161694816  8.10D-03  2.18D-03      0.3
                 5     -286.3161840147  2.53D-05  6.87D-06      0.4
                 6     -286.3161840148  9.74D-08  2.08D-08      0.4


       Final RHF  results 
       ------------------ 

         Total SCF energy =   -286.316184014787
      One-electron energy =   -688.128036787217
      Two-electron energy =    276.917996207359
 Nuclear repulsion energy =    124.893856565071

        Time for solution =      0.3s



       Symmetry analysis of molecular orbitals - final
       -----------------------------------------------

  Numbering of irreducible representations: 

     1 a           2 b       

  Orbital symmetries:

     1 a           2 b           3 a           4 b           5 a       
     6 b           7 a           8 b           9 b          10 a       
    11 a          12 b          13 a          14 b          15 b       
    16 a          17 b          18 a          19 a          20 b       
    21 a          22 a          23 b          24 a          25 b       
    26 a          27 b          28 b          29 a       

             Final eigenvalues
             -----------------

              1      
    1  -20.8386
    2  -20.8386
    3   -4.9269
    4   -2.9277
    5   -2.9124
    6   -2.9117
    7   -1.6226
    8   -1.6164
    9   -0.9762
   10   -0.9744
   11   -0.9182
   12   -0.8550
   13   -0.8045
   14   -0.7838
   15   -0.6650
   16   -0.6638
   17   -0.6628
   18   -0.6566
   19   -0.5911
   20   -0.0901
   21   -0.0894
   22   -0.0766
   23   -0.0701
   24    0.0521
   25    0.0598
   26    0.0749
   27    0.1019
   28    0.1145
   29    0.1160

                       ROHF Final Molecular Orbital Analysis
                       -------------------------------------

 Vector    9  Occ=2.000000D+00  E=-9.761670D-01  Symmetry=b
              MO Center= -6.0D-15, -3.2D-13, -6.1D-02, r^2= 5.4D+00
   Bfn.  Coefficient  Atom+Function         Bfn.  Coefficient  Atom+Function  
  ----- ------------  ---------------      ----- ------------  ---------------
    27      0.304781  2 O  pz                36     -0.304781  3 O  pz         
    25     -0.208142  2 O  px                34     -0.208142  3 O  px         
    31      0.181368  2 O  pz                40     -0.181368  3 O  pz         
    41     -0.168638  4 H  s                 43      0.168638  5 H  s          
    45      0.166832  6 H  s                 47     -0.166832  7 H  s          

 Vector   10  Occ=2.000000D+00  E=-9.743670D-01  Symmetry=a
              MO Center= -1.6D-14,  3.3D-13, -6.1D-02, r^2= 5.4D+00
   Bfn.  Coefficient  Atom+Function         Bfn.  Coefficient  Atom+Function  
  ----- ------------  ---------------      ----- ------------  ---------------
    27      0.297591  2 O  pz                36      0.297591  3 O  pz         
    25     -0.221342  2 O  px                34      0.221342  3 O  px         
    31      0.177367  2 O  pz                40      0.177367  3 O  pz         
    45      0.170128  6 H  s                 47      0.170128  7 H  s          
    41     -0.168031  4 H  s                 43     -0.168031  5 H  s          

 Vector   11  Occ=2.000000D+00  E=-9.182115D-01  Symmetry=a
              MO Center=  2.2D-15, -4.4D-14,  3.0D-03, r^2= 3.9D+00
   Bfn.  Coefficient  Atom+Function         Bfn.  Coefficient  Atom+Function  
  ----- ------------  ---------------      ----- ------------  ---------------
    26      0.344197  2 O  py                35     -0.344197  3 O  py         
    17      0.272638  1 Au d  2              30      0.250308  2 O  py         
    39     -0.250308  3 O  py                15      0.156849  1 Au d  0       

 Vector   12  Occ=2.000000D+00  E=-8.550244D-01  Symmetry=b
              MO Center=  2.1D-15, -3.7D-15,  4.8D-02, r^2= 4.5D+00
   Bfn.  Coefficient  Atom+Function         Bfn.  Coefficient  Atom+Function  
  ----- ------------  ---------------      ----- ------------  ---------------
    26      0.316171  2 O  py                35      0.316171  3 O  py         
    30      0.245812  2 O  py                39      0.245812  3 O  py         
    25     -0.203291  2 O  px                34     -0.203291  3 O  px         
    28     -0.157263  2 O  s                 37      0.157263  3 O  s          

 Vector   13  Occ=2.000000D+00  E=-8.044526D-01  Symmetry=a
              MO Center=  6.9D-15,  1.1D-15,  4.7D-02, r^2= 4.3D+00
   Bfn.  Coefficient  Atom+Function         Bfn.  Coefficient  Atom+Function  
  ----- ------------  ---------------      ----- ------------  ---------------
    13      0.298039  1 Au d -2              25      0.298475  2 O  px         
    34     -0.298475  3 O  px                27      0.237726  2 O  pz         
    36      0.237726  3 O  pz                29      0.221275  2 O  px         
    38     -0.221275  3 O  px                31      0.174999  2 O  pz         
    40      0.174999  3 O  pz         

 Vector   14  Occ=2.000000D+00  E=-7.837530D-01  Symmetry=b
              MO Center= -5.5D-14,  7.9D-14, -5.1D-03, r^2= 4.5D+00
   Bfn.  Coefficient  Atom+Function         Bfn.  Coefficient  Atom+Function  
  ----- ------------  ---------------      ----- ------------  ---------------
    25      0.286094  2 O  px                34      0.286094  3 O  px         
    26      0.271509  2 O  py                35      0.271509  3 O  py         
    14      0.225625  1 Au d -1              29      0.215802  2 O  px         
    30      0.216474  2 O  py                38      0.215802  3 O  px         
    39      0.216474  3 O  py                27      0.179068  2 O  pz         

 Vector   15  Occ=2.000000D+00  E=-6.649548D-01  Symmetry=b
              MO Center= -2.1D-14, -3.5D-15,  2.1D-02, r^2= 1.1D+00
   Bfn.  Coefficient  Atom+Function         Bfn.  Coefficient  Atom+Function  
  ----- ------------  ---------------      ----- ------------  ---------------
    14      0.712907  1 Au d -1              16      0.559996  1 Au d  1       

 Vector   16  Occ=2.000000D+00  E=-6.637600D-01  Symmetry=a
              MO Center=  1.0D-13,  2.9D-13,  4.6D-03, r^2= 8.5D-01
   Bfn.  Coefficient  Atom+Function         Bfn.  Coefficient  Atom+Function  
  ----- ------------  ---------------      ----- ------------  ---------------
    15      0.789803  1 Au d  0              17     -0.462314  1 Au d  2       

 Vector   17  Occ=2.000000D+00  E=-6.628184D-01  Symmetry=b
              MO Center=  5.3D-14, -3.2D-14,  9.1D-04, r^2= 9.8D-01
   Bfn.  Coefficient  Atom+Function         Bfn.  Coefficient  Atom+Function  
  ----- ------------  ---------------      ----- ------------  ---------------
    16      0.736537  1 Au d  1              14     -0.546198  1 Au d -1       

 Vector   18  Occ=2.000000D+00  E=-6.566101D-01  Symmetry=a
              MO Center= -1.6D-14, -1.9D-13,  2.4D-02, r^2= 1.4D+00
   Bfn.  Coefficient  Atom+Function         Bfn.  Coefficient  Atom+Function  
  ----- ------------  ---------------      ----- ------------  ---------------
    13      0.875296  1 Au d -2              25     -0.162167  2 O  px         
    34      0.162167  3 O  px                15     -0.151666  1 Au d  0       

 Vector   19  Occ=2.000000D+00  E=-5.911129D-01  Symmetry=a
              MO Center=  6.5D-15, -6.6D-14, -1.9D-02, r^2= 1.6D+00
   Bfn.  Coefficient  Atom+Function         Bfn.  Coefficient  Atom+Function  
  ----- ------------  ---------------      ----- ------------  ---------------
    17      0.680989  1 Au d  2               3      0.384526  1 Au s          
    15      0.384203  1 Au d  0               2      0.231375  1 Au s          

 Vector   20  Occ=0.000000D+00  E=-9.014866D-02  Symmetry=b
              MO Center=  1.5D-14, -8.3D-15, -1.4D-02, r^2= 1.3D+01
   Bfn.  Coefficient  Atom+Function         Bfn.  Coefficient  Atom+Function  
  ----- ------------  ---------------      ----- ------------  ---------------
    11      0.785536  1 Au py                10     -0.635845  1 Au px         
    28     -0.223864  2 O  s                 37      0.223864  3 O  s          

 Vector   21  Occ=0.000000D+00  E=-8.941501D-02  Symmetry=a
              MO Center= -3.2D-14, -3.9D-14, -8.2D-01, r^2= 7.0D+00
   Bfn.  Coefficient  Atom+Function         Bfn.  Coefficient  Atom+Function  
  ----- ------------  ---------------      ----- ------------  ---------------
    12      0.583866  1 Au pz                 3     -0.515524  1 Au s          
    28      0.389219  2 O  s                 37      0.389219  3 O  s          
    17      0.292531  1 Au d  2              46     -0.212966  6 H  s          
    48     -0.212966  7 H  s                 42     -0.200551  4 H  s          
    44     -0.200551  5 H  s                  2     -0.190076  1 Au s          

 Vector   22  Occ=0.000000D+00  E=-7.664431D-02  Symmetry=a
              MO Center=  3.0D-14, -6.2D-14,  8.0D-01, r^2= 7.9D+00
   Bfn.  Coefficient  Atom+Function         Bfn.  Coefficient  Atom+Function  
  ----- ------------  ---------------      ----- ------------  ---------------
    12      0.687435  1 Au pz                 3      0.449174  1 Au s          
    28     -0.350906  2 O  s                 37     -0.350906  3 O  s          
    17     -0.259850  1 Au d  2              46      0.197733  6 H  s          
    48      0.197733  7 H  s                 42      0.192609  4 H  s          
    44      0.192609  5 H  s                  2      0.176733  1 Au s          

 Vector   23  Occ=0.000000D+00  E=-7.009797D-02  Symmetry=b
              MO Center= -3.9D-15, -9.8D-16, -6.0D-02, r^2= 1.2D+01
   Bfn.  Coefficient  Atom+Function         Bfn.  Coefficient  Atom+Function  
  ----- ------------  ---------------      ----- ------------  ---------------
    11      0.729531  1 Au py                10      0.646310  1 Au px         
    28     -0.225929  2 O  s                 37      0.225929  3 O  s          
     7      0.159475  1 Au px         

 Vector   24  Occ=0.000000D+00  E= 5.213552D-02  Symmetry=a
              MO Center= -6.0D-15, -8.4D-15, -2.9D-01, r^2= 8.0D+00
   Bfn.  Coefficient  Atom+Function         Bfn.  Coefficient  Atom+Function  
  ----- ------------  ---------------      ----- ------------  ---------------
     9      1.210330  1 Au pz                12     -0.751212  1 Au pz         
    42      0.463883  4 H  s                 44      0.463883  5 H  s          
     3     -0.211832  1 Au s                  6     -0.199409  1 Au pz         
    28     -0.159896  2 O  s                 37     -0.159896  3 O  s          

 Vector   25  Occ=0.000000D+00  E= 5.975317D-02  Symmetry=b
              MO Center= -4.6D-15, -6.6D-14, -1.4D-02, r^2= 8.3D+00
   Bfn.  Coefficient  Atom+Function         Bfn.  Coefficient  Atom+Function  
  ----- ------------  ---------------      ----- ------------  ---------------
     7      1.263815  1 Au px                10     -0.817550  1 Au px         
    46      0.340246  6 H  s                 48     -0.340246  7 H  s          
    42     -0.219065  4 H  s                 44      0.219065  5 H  s          
     4     -0.204488  1 Au px         

 Vector   26  Occ=0.000000D+00  E= 7.493517D-02  Symmetry=a
              MO Center=  6.1D-16, -8.1D-15,  2.0D-01, r^2= 7.8D+00
   Bfn.  Coefficient  Atom+Function         Bfn.  Coefficient  Atom+Function  
  ----- ------------  ---------------      ----- ------------  ---------------
    46      0.865356  6 H  s                 48      0.865356  7 H  s          
     3     -0.757980  1 Au s                 28     -0.544761  2 O  s          
    37     -0.544761  3 O  s                 42      0.468461  4 H  s          
    44      0.468461  5 H  s                 30     -0.370682  2 O  py         
    39      0.370682  3 O  py                 9     -0.280156  1 Au pz         

 Vector   27  Occ=0.000000D+00  E= 1.019272D-01  Symmetry=b
              MO Center=  6.6D-15,  4.0D-15, -5.4D-01, r^2= 1.0D+01
   Bfn.  Coefficient  Atom+Function         Bfn.  Coefficient  Atom+Function  
  ----- ------------  ---------------      ----- ------------  ---------------
    42      1.203838  4 H  s                 44     -1.203838  5 H  s          
    11     -0.686927  1 Au py                28     -0.456682  2 O  s          
    37      0.456682  3 O  s                 31      0.453548  2 O  pz         
    40     -0.453548  3 O  pz                10     -0.327258  1 Au px         
     7      0.324877  1 Au px                46     -0.326105  6 H  s          

 Vector   28  Occ=0.000000D+00  E= 1.144729D-01  Symmetry=b
              MO Center=  2.2D-15,  3.1D-15,  2.1D-01, r^2= 1.2D+01
   Bfn.  Coefficient  Atom+Function         Bfn.  Coefficient  Atom+Function  
  ----- ------------  ---------------      ----- ------------  ---------------
    46     -1.154439  6 H  s                 48      1.154439  7 H  s          
    11      1.081646  1 Au py                28      0.770424  2 O  s          
    37     -0.770424  3 O  s                  8     -0.614348  1 Au py         
    10     -0.402727  1 Au px                29     -0.332258  2 O  px         
    38     -0.332258  3 O  px                 7      0.287996  1 Au px         

 Vector   29  Occ=0.000000D+00  E= 1.160144D-01  Symmetry=a
              MO Center= -1.3D-15, -1.4D-15, -3.4D-01, r^2= 9.9D+00
   Bfn.  Coefficient  Atom+Function         Bfn.  Coefficient  Atom+Function  
  ----- ------------  ---------------      ----- ------------  ---------------
    42      0.997416  4 H  s                 44      0.997416  5 H  s          
    46     -0.784229  6 H  s                 48     -0.784229  7 H  s          
    12      0.623474  1 Au pz                 9     -0.494019  1 Au pz         
    31      0.463327  2 O  pz                40      0.463327  3 O  pz         
    29     -0.286051  2 O  px                38      0.286051  3 O  px         

 Vector   30  Occ=0.000000D+00  E= 2.198113D-01  Symmetry=b
              MO Center= -1.4D-14,  2.2D-15, -3.4D-02, r^2= 5.4D+00
   Bfn.  Coefficient  Atom+Function         Bfn.  Coefficient  Atom+Function  
  ----- ------------  ---------------      ----- ------------  ---------------
     8      1.973913  1 Au py                46     -0.551102  6 H  s          
    48      0.551102  7 H  s                 30      0.511778  2 O  py         
    39      0.511778  3 O  py                42     -0.491464  4 H  s          
    44      0.491464  5 H  s                 26      0.184836  2 O  py         
    35      0.184836  3 O  py                28     -0.162017  2 O  s          

 Vector   31  Occ=0.000000D+00  E= 3.369610D-01  Symmetry=b
              MO Center= -5.7D-14,  1.5D-14,  5.1D-02, r^2= 3.7D+00
   Bfn.  Coefficient  Atom+Function         Bfn.  Coefficient  Atom+Function  
  ----- ------------  ---------------      ----- ------------  ---------------
    21      1.074226  1 Au d  1              16     -0.575008  1 Au d  1       
    46     -0.216006  6 H  s                 48      0.216006  7 H  s          

 Vector   32  Occ=0.000000D+00  E= 3.399435D-01  Symmetry=a
              MO Center= -4.1D-14,  3.8D-15,  1.2D-02, r^2= 3.7D+00
   Bfn.  Coefficient  Atom+Function         Bfn.  Coefficient  Atom+Function  
  ----- ------------  ---------------      ----- ------------  ---------------
    20      0.960879  1 Au d  0              15     -0.506662  1 Au d  0       
    22     -0.505710  1 Au d  2              17      0.279462  1 Au d  2       
    42     -0.194237  4 H  s                 44     -0.194237  5 H  s          
    46      0.157482  6 H  s                 48      0.157482  7 H  s          

 Vector   33  Occ=0.000000D+00  E= 3.793633D-01  Symmetry=b
              MO Center= -1.1D-14,  3.2D-13,  3.4D-02, r^2= 3.7D+00
   Bfn.  Coefficient  Atom+Function         Bfn.  Coefficient  Atom+Function  
  ----- ------------  ---------------      ----- ------------  ---------------
    19      1.191349  1 Au d -1              14     -0.576391  1 Au d -1       

 Vector   34  Occ=0.000000D+00  E= 3.840890D-01  Symmetry=a
              MO Center=  5.4D-14, -2.2D-13,  8.8D-03, r^2= 3.7D+00
   Bfn.  Coefficient  Atom+Function         Bfn.  Coefficient  Atom+Function  
  ----- ------------  ---------------      ----- ------------  ---------------
    18      1.208056  1 Au d -2              13     -0.574338  1 Au d -2       

 Vector   35  Occ=0.000000D+00  E= 6.198679D-01  Symmetry=a
              MO Center= -5.1D-15, -1.0D-14,  6.7D-02, r^2= 4.0D+00
   Bfn.  Coefficient  Atom+Function         Bfn.  Coefficient  Atom+Function  
  ----- ------------  ---------------      ----- ------------  ---------------
    22      2.137415  1 Au d  2               3     -1.364555  1 Au s          
    20      1.199490  1 Au d  0              28      0.884314  2 O  s          
    37      0.884314  3 O  s                 30     -0.764175  2 O  py         
    39      0.764175  3 O  py                 2     -0.433522  1 Au s          
    42      0.426968  4 H  s                 44      0.426968  5 H  s          


 center of mass
 --------------
 x =   0.00000000 y =   0.00000000 z =   0.01011408

 moments of inertia (a.u.)
 ------------------
         567.724815918648          11.537877415498           0.000000000000
          11.537877415498          11.006603263114           0.000000000000
           0.000000000000           0.000000000000         565.632691984726

  Mulliken analysis of the total density
  --------------------------------------

    Atom       Charge   Shell Charges
 -----------   ------   -------------------------------------------------------
    1 Au  19    18.29   2.00  0.18  0.40  5.99  0.07  0.02  8.92  0.71
    2 O    8     8.87   2.00  0.88  2.93  1.01  2.05
    3 O    8     8.87   2.00  0.88  2.93  1.01  2.05
    4 H    1     0.49   0.46  0.04
    5 H    1     0.49   0.46  0.04
    6 H    1     0.49   0.46  0.03
    7 H    1     0.49   0.46  0.03

       Multipole analysis of the density wrt the origin
       ------------------------------------------------

     L   x y z        total         open         nuclear
     -   - - -        -----         ----         -------
     0   0 0 0      1.000000      0.000000     39.000000

     1   1 0 0      0.000000      0.000000      0.000000
     1   0 1 0      0.000000      0.000000      0.000000
     1   0 0 1     -0.806256      0.000000     -1.061403

     2   2 0 0    -23.396696      0.000000      4.422633
     2   1 1 0     -6.276521      0.000000    -11.448295
     2   1 0 1      0.000000      0.000000      0.000000
     2   0 2 0     -4.045295      0.000000    323.588924
     2   0 1 1      0.000000      0.000000      0.000000
     2   0 0 2    -22.124987      0.000000      6.462024


 Parallel integral file used       8 records with       0 large values

                   NWChem MP2 Semi-direct Energy/Gradient Module
                   ---------------------------------------------


                Au+(H2O)2, H2O aVTZ using optimal MP2/aVDZ geometry


  Basis functions       =     48
  Molecular orbitals    =     48
  Frozen core           =      2
  Frozen virtuals       =      0
  Active alpha occupied =     17
  Active beta occupied  =     17
  Active alpha virtual  =     29
  Active beta virtual   =     29
  Use MO symmetry       = T
  Use skeleton AO sym   = T

  AO/Fock/Back tols     =   1.0D-09  1.0D-09  1.0D-09

 GA uses MA = F    GA memory limited = T

 Available: 
  local mem=  1.15D+07
 global mem=  2.62D+07
 local disk=  1.09D+07
   1 passes of  17:         374537                      13746                    157539.

 Semi-direct pass number   1 of   1  for RHF alpha+beta  at        2.0s
Node 0 wrote      1.2 Mb in      0.0 s     Agg I/O rate:  2682.3 Mb/s
 Done moints_semi at        2.5s
 Done maket at        2.5s
 Done multipass loop at        2.5s


          -------------------------------------------
          SCF energy                -286.316184014787
          Correlation energy          -0.325513508281
          Singlet pairs               -0.200377324669
          Triplet pairs               -0.125136183612
          Total MP2 energy          -286.641697523068
          -------------------------------------------



          ---------------------------------------------------
                    Spin Component Scaled (SCS) MP2
          Same spin pairs                     -0.083424122408
          Same spin scaling factor             0.333333333333
          Opposite spin pairs                 -0.242089385873
          Opposite spin scaling fact.          1.200000000000
          SCS-MP2 correlation energy          -0.318315303850
          Total SCS-MP2 energy              -286.634499318637
          ---------------------------------------------------

 -----------------------
 Performance information
 -----------------------

 Timer overhead =  4.00D-07 seconds/call

               Nr. of calls         CPU time (s)                 Wall time (s)                GFlops
             ---------------    -------------------     ------------------------------   -------------------
Name         Min   Avg   Max    Min     Avg     Max     Min     Avg     Max   Mx/calls   Min     Max     Sum
mp2: moin     1     1     1   0.44    0.45    0.46     0.49    0.49    0.49    0.49      0.0     0.0     0.0   
mp2: make     1     1     1   2.10E-2 2.30E-2 2.60E-2  2.98E-2 2.98E-2 2.99E-2 2.99E-2   0.0     0.0     0.0   
mp2: tota     1     1     1   0.49    0.50    0.51     0.57    0.57    0.57    0.57      0.0     0.0     0.0   

 The average no. of pstat calls per process was 3.00D+00
 with a timing overhead of 1.20D-06s


 Task  times  cpu:        0.9s     wall:        1.4s
 Summary of allocated global arrays
-----------------------------------
  No active global arrays



                         GA Statistics for process    0
                         ------------------------------

       create   destroy   get      put      acc     scatter   gather  read&inc
calls:  476      476     1.21e+04 7053     1.09e+04    0        0      528     
number of processes/call 1.15e+00 1.65e+00 1.03e+00 0.00e+00 0.00e+00
bytes total:             6.88e+06 4.01e+06 2.36e+06 0.00e+00 0.00e+00 4.22e+03
bytes remote:            2.91e+06 1.18e+06 1.12e+06 0.00e+00 0.00e+00 0.00e+00
Max memory consumed for GA by this process: 118024 bytes
MA_summarize_allocated_blocks: starting scan ...
MA_summarize_allocated_blocks: scan completed: 0 heap blocks, 0 stack blocks
MA usage statistics:

	allocation statistics:
					      heap	     stack
					      ----	     -----
	current number of blocks	         0	         0
	maximum number of blocks	        40	        22
	current total bytes		         0	         0
	maximum total bytes		   2713464	  22510128
	maximum total K-bytes		      2714	     22511
	maximum total M-bytes		         3	        23


                                NWChem Input Module
                                -------------------





                                     CITATION
                                     --------
                Please cite the following reference when publishing
                           results obtained with NWChem:

                 M. Valiev, E.J. Bylaska, N. Govind, K. Kowalski,
              T.P. Straatsma, H.J.J. van Dam, D. Wang, J. Nieplocha,
                        E. Apra, T.L. Windus, W.A. de Jong
                 "NWChem: a comprehensive and scalable open-source
                  solution for large scale molecular simulations"
                      Comput. Phys. Commun. 181, 1477 (2010)
                           doi:10.1016/j.cpc.2010.04.018

                              AUTHORS & CONTRIBUTORS
                              ----------------------
          E. Apra, E. J. Bylaska, W. A. de Jong, N. Govind, K. Kowalski,
       T. P. Straatsma, M. Valiev, H. J. J. van Dam, D. Wang, T. L. Windus,
        J. Hammond, J. Autschbach, K. Bhaskaran-Nair, J. Brabec, K. Lopata,
     F. Aquino, S. Hirata, M. T. Hackler, T. Risthaus, M. Malagoli, J. Mullin,
        P. Nichols, R. Peverati, J. Pittner, Y. Zhao, P.-D. Fan, A. Fonari,
     R. J. Harrison, M. Dupuis, D. Silverstein, D. M. A. Smith, J. Nieplocha,
       V. Tipparaju, M. Krishnan, B. E. Van Kuiken,  A. Vazquez-Mayagoitia,
        L. Jensen, M. Swart, Q. Wu, T. Van Voorhis, A. A. Auer, M. Nooijen,
      L. D. Crosby, E. Brown, G. Cisneros, G. I. Fann, H. Fruchtl, J. Garza,
   K. Hirao, R. Kendall, J. A. Nichols, K. Tsemekhman, K. Wolinski, J. Anchell,
       D. Bernholdt, P. Borowski, T. Clark, D. Clerc, H. Dachsel, M. Deegan,
        K. Dyall, D. Elwood, E. Glendening, M. Gutowski, A. Hess, J. Jaffe,
   B. Johnson, J. Ju, R. Kobayashi, R. Kutteh, Z. Lin, R. Littlefield, X. Long,
        B. Meng,T. Nakajima, S. Niu, L. Pollack, M. Rosing, K. Glaesemann,
      G. Sandrone, M. Stave, H. Taylor, G. Thomas, J. H. van Lenthe, A. Wong,
                                     Z.Zhang.

 Total times  cpu:        0.9s     wall:        2.5s
