 argument  1 = dft_siosi3_cdfit_2c.nw



============================== echo of input deck ==============================
echo

title dft_siosi3_cdfit_2c

start dft_siosi3_cdfit_2c

memory stack 500 mb heap 100 mb global 3000 mb noverify

geometry units au noautoz noautosym
O 0.000000 0.000000 0.000000
Si 3.014576 0.000000 0.000000
Si -2.508676 -1.669137 0.090355
O 3.981166 -1.323122 -2.508935
O 3.870273 2.910825 0.000000
O 4.041116 -1.465033 2.376888
O -2.655663 -3.328781 -2.400368
O -2.480544 -3.435889 2.483573
O -4.832471 0.280842 0.142363
Si 5.637169 -3.319181 -4.029830
Si 5.930953 4.953101 0.791790
Si 5.468246 -2.250324 4.885188
Si -7.654391 0.847590 1.014023
Si -3.158194 -4.857247 5.026302
Si -2.974151 -5.921535 -3.888964
H 5.270061 -6.079998 -2.949279
H 8.494671 -2.562004 -3.822741
H 4.688562 -3.250915 -6.887353
H 4.114112 -1.013523 7.254688
H 5.390639 -5.229699 5.239395
H 8.311107 -1.375146 4.719652
H 5.236878 7.507709 -0.616368
H 5.938739 5.355645 3.732678
H 8.621652 4.058320 -0.087848
H -1.107625 -8.007345 -2.844945
H -5.765149 -6.871347 -3.589463
H -2.308182 -5.365343 -6.772894
H -2.645080 -3.056162 7.365261
H -1.433339 -7.291917 5.351028
H -6.013502 -5.704069 4.953988
H -8.533456 3.346292 -0.391100
H -7.795607 1.205101 3.957357
H -9.424475 -1.395251 0.207369
end

dft
   maxiter 100
end

basis "ao basis"  spherical
H  library "DZVP2 (DFT Orbital)"
O  library "DZVP (DFT Orbital)"
Si library "DZVP (DFT Orbital)"
end

basis "cd basis" spherical
H  library "DGauss A2 DFT Coulomb Fitting"
O  library "DGauss A1 DFT Coulomb Fitting"
Si library "DGauss A1 DFT Coulomb Fitting"
end

task sodft
================================================================================


                                         
                                         


              Northwest Computational Chemistry Package (NWChem) 6.6
              ------------------------------------------------------


                    Environmental Molecular Sciences Laboratory
                       Pacific Northwest National Laboratory
                                Richland, WA 99352

                              Copyright (c) 1994-2015
                       Pacific Northwest National Laboratory
                            Battelle Memorial Institute

             NWChem is an open-source computational chemistry package
                        distributed under the terms of the
                      Educational Community License (ECL) 2.0
             A copy of the license is included with this distribution
                              in the LICENSE.TXT file

                                  ACKNOWLEDGMENT
                                  --------------

            This software and its documentation were developed at the
            EMSL at Pacific Northwest National Laboratory, a multiprogram
            national laboratory, operated for the U.S. Department of Energy
            by Battelle under Contract Number DE-AC05-76RL01830. Support
            for this work was provided by the Department of Energy Office
            of Biological and Environmental Research, Office of Basic
            Energy Sciences, and the Office of Advanced Scientific Computing.


           Job information
           ---------------

    hostname        = kohn
    program         = ../../../bin/LINUX64/nwchem
    date            = Wed Apr  5 21:13:10 2017

    compiled        = Wed_Apr_05_20:31:09_2017
    source          = /home/niri/nwchem/nwchem-trunk
    nwchem branch   = Development
    nwchem revision = 29181
    ga revision     = 10752
    input           = dft_siosi3_cdfit_2c.nw
    prefix          = dft_siosi3_cdfit_2c.
    data base       = ./dft_siosi3_cdfit_2c.db
    status          = startup
    nproc           =        4
    time left       =     -1s



           Memory information
           ------------------

    heap     =   13107196 doubles =    100.0 Mbytes
    stack    =   65536001 doubles =    500.0 Mbytes
    global   =  393216000 doubles =   3000.0 Mbytes (distinct from heap & stack)
    total    =  471859197 doubles =   3600.0 Mbytes
    verify   = no 
    hardfail = no 


           Directory information
           ---------------------

  0 permanent = .
  0 scratch   = .




                                NWChem Input Module
                                -------------------


                                dft_siosi3_cdfit_2c
                                -------------------


                             Geometry "geometry" -> ""
                             -------------------------

 Output coordinates in a.u. (scale by  1.000000000 to convert to a.u.)

  No.       Tag          Charge          X              Y              Z
 ---- ---------------- ---------- -------------- -------------- --------------
    1 O                    8.0000    -0.42477672     1.38523214    -0.37640693
    2 Si                  14.0000     2.58979928     1.38523214    -0.37640693
    3 Si                  14.0000    -2.93345272    -0.28390486    -0.28605193
    4 O                    8.0000     3.55638928     0.06211014    -2.88534193
    5 O                    8.0000     3.44549628     4.29605714    -0.37640693
    6 O                    8.0000     3.61633928    -0.07980086     2.00048107
    7 O                    8.0000    -3.08043972    -1.94354886    -2.77677493
    8 O                    8.0000    -2.90532072    -2.05065686     2.10716607
    9 O                    8.0000    -5.25724772     1.66607414    -0.23404393
   10 Si                  14.0000     5.21239228    -1.93394886    -4.40623693
   11 Si                  14.0000     5.50617628     6.33833314     0.41538307
   12 Si                  14.0000     5.04346928    -0.86509186     4.50878107
   13 Si                  14.0000    -8.07916772     2.23282214     0.63761607
   14 Si                  14.0000    -3.58297072    -3.47201486     4.64989507
   15 Si                  14.0000    -3.39892772    -4.53630286    -4.26537093
   16 H                    1.0000     4.84528428    -4.69476586    -3.32568593
   17 H                    1.0000     8.06989428    -1.17677186    -4.19914793
   18 H                    1.0000     4.26378528    -1.86568286    -7.26375993
   19 H                    1.0000     3.68933528     0.37170914     6.87828107
   20 H                    1.0000     4.96586228    -3.84446686     4.86298807
   21 H                    1.0000     7.88633028     0.01008614     4.34324507
   22 H                    1.0000     4.81210128     8.89294114    -0.99277493
   23 H                    1.0000     5.51396228     6.74087714     3.35627107
   24 H                    1.0000     8.19687528     5.44355214    -0.46425493
   25 H                    1.0000    -1.53240172    -6.62211286    -3.22135193
   26 H                    1.0000    -6.18992572    -5.48611486    -3.96586993
   27 H                    1.0000    -2.73295872    -3.98011086    -7.14930093
   28 H                    1.0000    -3.06985672    -1.67092986     6.98885407
   29 H                    1.0000    -1.85811572    -5.90668486     4.97462107
   30 H                    1.0000    -6.43827872    -4.31883686     4.57758107
   31 H                    1.0000    -8.95823272     4.73152414    -0.76750693
   32 H                    1.0000    -8.22038372     2.59033314     3.58095007
   33 H                    1.0000    -9.84925172    -0.01001886    -0.16903793

      Atomic Mass 
      ----------- 

      O                 15.994910
      Si                27.976930
      H                  1.007825


 Effective nuclear repulsion energy (a.u.)    2313.2423767734

            Nuclear Dipole moment (a.u.) 
            ----------------------------
        X                 Y               Z
 ---------------- ---------------- ----------------
    -0.0000000000    -0.0000000000    -0.0000000000


            XYZ format geometry
            -------------------
    33
 geometry
 O                    -0.22478218     0.73303333    -0.19918598
 Si                    1.37046286     0.73303333    -0.19918598
 Si                   -1.55231644    -0.15023599    -0.15137217
 O                     1.88196030     0.03286727    -1.52685730
 O                     1.82327824     2.27337570    -0.19918598
 O                     1.91368447    -0.04222880     1.05860907
 O                    -1.63009862    -1.02848184    -1.46940612
 O                    -1.53742963    -1.08516096     1.11506434
 O                    -2.78201589     0.88164853    -0.12385072
 Si                    2.75827941    -1.02340174    -2.33168034
 Si                    2.91374322     3.35410169     0.21981127
 Si                    2.66888920    -0.45778693     2.38594436
 Si                   -4.27531175     1.18155868     0.33741192
 Si                   -1.89602659    -1.83731127     2.46061868
 Si                   -1.79863522    -2.40050827    -2.25713725
 H                     2.56401421    -2.48436328    -1.75987733
 H                     4.27040445    -0.62272090    -2.22209355
 H                     2.25629816    -0.98727692    -3.84381650
 H                     1.95231229     0.19670002     3.63982985
 H                     2.62782134    -2.03440440     2.57338265
 H                     4.17326656     0.00533736     2.29834648
 H                     2.54645452     4.70594213    -0.52535391
 H                     2.91786339     3.56711882     1.77606229
 H                     4.33759991     2.88060395    -0.24567315
 H                    -0.81091213    -3.50427147    -1.70466615
 H                    -3.27556786    -2.90312717    -2.09864814
 H                    -1.44621958    -2.10618412    -3.78324740
 H                    -1.62449833    -0.88421807     3.69834257
 H                    -0.98327257    -3.12568325     2.63245629
 H                    -3.40699062    -2.28543021     2.42235176
 H                    -4.74049295     2.50381493    -0.40614721
 H                    -4.35004004     1.37074536     1.89495731
 H                    -5.21199993    -0.00530175    -0.08945103

 ==============================================================================
                                internuclear distances
 ------------------------------------------------------------------------------
       center one      |      center two      | atomic units |       a.u.
 ------------------------------------------------------------------------------
    2 Si               |   1 O                |     3.01458  |     3.01458
    3 Si               |   1 O                |     3.01457  |     3.01457
    4 O                |   2 Si               |     2.99662  |     2.99662
    5 O                |   2 Si               |     3.03399  |     3.03399
    6 O                |   2 Si               |     2.97484  |     2.97484
    7 O                |   3 Si               |     2.99662  |     2.99662
    8 O                |   3 Si               |     2.97484  |     2.97484
    9 O                |   3 Si               |     3.03400  |     3.03400
   10 Si               |   4 O                |     3.00661  |     3.00661
   11 Si               |   5 O                |     3.00736  |     3.00736
   12 Si               |   6 O                |     2.99081  |     2.99081
   13 Si               |   9 O                |     3.00736  |     3.00736
   14 Si               |   8 O                |     2.99081  |     2.99081
   15 Si               |   7 O                |     3.00661  |     3.00661
 ------------------------------------------------------------------------------
                         number of included internuclear distances:         14
 ==============================================================================



 ==============================================================================
                                 internuclear angles
 ------------------------------------------------------------------------------
        center 1       |       center 2       |       center 3       |  degrees
 ------------------------------------------------------------------------------
    2 Si               |   1 O                |   3 Si               |   146.32
    1 O                |   2 Si               |   4 O                |   108.82
    1 O                |   2 Si               |   5 O                |   106.38
    1 O                |   2 Si               |   6 O                |   110.19
    4 O                |   2 Si               |   5 O                |   109.43
    4 O                |   2 Si               |   6 O                |   109.89
    5 O                |   2 Si               |   6 O                |   112.03
    1 O                |   3 Si               |   7 O                |   108.82
    1 O                |   3 Si               |   8 O                |   110.19
    1 O                |   3 Si               |   9 O                |   106.38
    7 O                |   3 Si               |   8 O                |   109.89
    7 O                |   3 Si               |   9 O                |   109.43
    8 O                |   3 Si               |   9 O                |   112.03
    2 Si               |   4 O                |  10 Si               |   153.42
    2 Si               |   5 O                |  11 Si               |   147.65
    2 Si               |   6 O                |  12 Si               |   164.59
    3 Si               |   7 O                |  15 Si               |   153.42
    3 Si               |   8 O                |  14 Si               |   164.59
    3 Si               |   9 O                |  13 Si               |   147.65
 ------------------------------------------------------------------------------
                            number of included internuclear angles:         19
 ==============================================================================



  library name resolved from: environment
  library file name is: </home/niri/nwchem/nwchem-trunk/src/basis/libraries/>
  
                      Basis "ao basis" -> "" (spherical)
                      -----
  H (Hydrogen)
  ------------
            Exponent  Coefficients 
       -------------- ---------------------------------------------------------
  1 S  5.09991780E+01  0.009661
  1 S  7.48321810E+00  0.073729
  1 S  1.77746760E+00  0.295858
  1 S  5.19329500E-01  0.715905

  2 S  1.54110000E-01  1.000000

  3 P  7.50000000E-01  1.000000

  O (Oxygen)
  ----------
            Exponent  Coefficients 
       -------------- ---------------------------------------------------------
  1 S  5.22290220E+03 -0.001936
  1 S  7.82539940E+02 -0.014851
  1 S  1.77267430E+02 -0.073319
  1 S  4.95166880E+01 -0.245116
  1 S  1.56664400E+01 -0.480285
  1 S  5.17935990E+00 -0.335943

  2 S  1.06014410E+01  0.078806
  2 S  9.42317000E-01 -0.567695

  3 S  2.77474600E-01  1.000000

  4 P  3.34241260E+01  0.017560
  4 P  7.62217140E+00  0.107630
  4 P  2.23820930E+00  0.323526
  4 P  6.86730000E-01  0.483223

  5 P  1.93813500E-01  1.000000

  6 D  8.00000000E-01  1.000000

  Si (Silicon)
  ------------
            Exponent  Coefficients 
       -------------- ---------------------------------------------------------
  1 S  1.72685770E+04 -0.001797
  1 S  2.58665090E+03 -0.013797
  1 S  5.85636410E+02 -0.068781
  1 S  1.63773640E+02 -0.235251
  1 S  5.22670280E+01 -0.476619
  1 S  1.75416810E+01 -0.350773

  2 S  3.51241390E+01  0.090214
  2 S  3.56542270E+00 -0.572255
  2 S  1.25914740E+00 -0.504554

  3 S  1.94701440E+00 -0.150835
  3 S  2.36757300E-01  0.674559

  4 S  8.58966000E-02  1.000000

  5 P  1.59681740E+02 -0.012393
  5 P  3.72581720E+01 -0.085080
  5 P  1.14382530E+01 -0.290551
  5 P  3.82783360E+00 -0.498559
  5 P  1.26790030E+00 -0.332562

  6 P  5.34409500E-01 -0.226437
  6 P  1.82903100E-01 -0.555304

  7 P  6.17873000E-02  1.000000

  8 D  4.50000000E-01  1.000000



 Summary of "ao basis" -> "" (spherical)
 ------------------------------------------------------------------------------
       Tag                 Description            Shells   Functions and Types
 ---------------- ------------------------------  ------  ---------------------
 H                    DZVP2 (DFT Orbital)            3        5   2s1p
 O                     DZVP (DFT Orbital)            6       14   3s2p1d
 Si                    DZVP (DFT Orbital)            8       18   4s3p1d


  library name resolved from: environment
  library file name is: </home/niri/nwchem/nwchem-trunk/src/basis/libraries/>
  
                      Basis "cd basis" -> "" (spherical)
                      -----
  H (Hydrogen)
  ------------
            Exponent  Coefficients 
       -------------- ---------------------------------------------------------
  1 S  4.50000000E+01  1.000000

  2 S  7.50000000E+00  1.000000

  3 S  3.00000000E-01  1.000000

  4 S  1.50000000E+00  1.000000

  5 P  1.50000000E+00  1.000000

  6 D  1.50000000E+00  1.000000

  O (Oxygen)
  ----------
            Exponent  Coefficients 
       -------------- ---------------------------------------------------------
  1 S  2.00000000E+03  1.000000

  2 S  4.00000000E+02  1.000000

  3 S  1.00000000E+02  1.000000

  4 S  2.50000000E+01  1.000000

  5 S  7.80000000E+00  1.000000

  6 P  7.80000000E+00  1.000000

  7 S  1.56000000E+00  1.000000

  8 P  1.56000000E+00  1.000000

  9 S  3.90000000E-01  1.000000

 10 P  3.90000000E-01  1.000000

 11 D  7.80000000E+00  1.000000

 12 D  1.56000000E+00  1.000000

 13 D  3.90000000E-01  1.000000

  Si (Silicon)
  ------------
            Exponent  Coefficients 
       -------------- ---------------------------------------------------------
  1 S  9.83000000E+03  1.000000

  2 S  1.96600000E+03  1.000000

  3 S  4.92000000E+02  1.000000

  4 S  1.23000000E+02  1.000000

  5 S  3.07200000E+01  1.000000

  6 S  9.60000000E+00  1.000000

  7 P  9.60000000E+00  1.000000

  8 S  1.92000000E+00  1.000000

  9 P  1.92000000E+00  1.000000

 10 S  4.80000000E-01  1.000000

 11 P  4.80000000E-01  1.000000

 12 S  1.20000000E-01  1.000000

 13 P  1.20000000E-01  1.000000

 14 D  9.60000000E+00  1.000000

 15 D  1.92000000E+00  1.000000

 16 D  4.80000000E-01  1.000000

 17 D  1.20000000E-01  1.000000



 Summary of "cd basis" -> "" (spherical)
 ------------------------------------------------------------------------------
       Tag                 Description            Shells   Functions and Types
 ---------------- ------------------------------  ------  ---------------------
 H                DGauss A2 DFT Coulomb Fitting      6       12   4s1p1d
 O                DGauss A1 DFT Coulomb Fitting     13       31   7s3p3d
 Si               DGauss A1 DFT Coulomb Fitting     17       41   9s4p4d



                                 NWChem DFT Module
                                 -----------------


                                dft_siosi3_cdfit_2c




 Summary of "ao basis" -> "ao basis" (spherical)
 ------------------------------------------------------------------------------
       Tag                 Description            Shells   Functions and Types
 ---------------- ------------------------------  ------  ---------------------
 H                    DZVP2 (DFT Orbital)            3        5   2s1p
 O                     DZVP (DFT Orbital)            6       14   3s2p1d
 Si                    DZVP (DFT Orbital)            8       18   4s3p1d


  Caching 1-el integrals 

            General Information
            -------------------
          SCF calculation type: DFT
          Wavefunction type:  closed shell.
          No. of atoms     :    33
          No. of electrons :   186
           Alpha electrons :    93
            Beta electrons :    93
          Charge           :     0
          Spin multiplicity:     1
          Use of symmetry is: off; symmetry adaption is: off
          Maximum number of iterations: 100
          AO basis - number of functions:   332
                     number of shells:   160
          A Charge density fitting basis will be used.
          CD basis - number of functions:   761
                     number of shells:   335
          Convergence on energy requested:  1.00D-06
          Convergence on density requested:  1.00D-05
          Convergence on gradient requested:  5.00D-04

              XC Information
              --------------
                        Slater Exchange Functional  1.000 local    
                      VWN V Correlation Functional  1.000 local    

             Grid Information
             ----------------
          Grid used for XC integration:  medium    
          Radial quadrature: Mura-Knowles        
          Angular quadrature: Lebedev. 
          Tag              B.-S. Rad. Rad. Pts. Rad. Cut. Ang. Pts.
          ---              ---------- --------- --------- ---------
          O                   0.60       49          16.0       434
          Si                  1.10       88          19.0       590
          H                   0.35       45          21.0       434
          Grid pruning is: on 
          Number of quadrature shells:  1857
          Spatial weights used:  Erf1

          Convergence Information
          -----------------------
          Convergence aids based upon iterative change in 
          total energy or number of iterations. 
          Levelshifting, if invoked, occurs when the 
          HOMO/LUMO gap drops below (HL_TOL):  1.00D-02
          DIIS, if invoked, will attempt to extrapolate 
          using up to (NFOCK): 10 stored Fock matrices.

                    Damping( 0%)  Levelshifting(0.5)       DIIS
                  --------------- ------------------- ---------------
          dE  on:    start            ASAP                start   
          dE off:    2 iters        100 iters           100 iters 


      Screening Tolerance Information
      -------------------------------
          Density screening/tol_rho:  1.00D-10
          AO Gaussian exp screening on grid/accAOfunc:  14
          CD Gaussian exp screening on grid/accCDfunc:  20
          XC Gaussian exp screening on grid/accXCfunc:  20
          Schwarz screening/accCoul:  1.00D-10

 Performing spin-orbit DFT (SO-DFT) calculations
 -----------------------------------------------


      3 Center 2 Electron Integral Information
      ----------------------------------------
          Maximum number of 3-center 2e- integrals is:        83880464.
            This is reduced with Schwarz screening to:        33273964.
            Incore requires a per proc buffer size of:         7506505.
          Minimum dble words available (all nodes) is:        78617804
                   This is reduced (for later use) to:        77917052
                      proc 0 Suggested buffer size is:         7506505
                         Max Suggested buffer size is:         7819276
                              no. integral batches is:            1000

           7.507 MW buffer allocated for incore 3-center 
          2e- integral storage on stack. 

      Superposition of Atomic Density Guess
      -------------------------------------

 Sum of atomic energies:       -2842.55896089

      Non-variational initial energy
      ------------------------------

 Total energy =   -2848.609713
 1-e energy   =   -8548.884472
 2-e energy   =    3387.032382
 HOMO         =      -0.373292
 LUMO         =      -0.026538

   Time prior to 1st pass:      9.2

 Grid_pts file          = ./dft_siosi3_cdfit_2c.gridpts.0
 Record size in doubles =  12289        No. of grid_pts per rec  =   3070
 Max. records in memory =    100        Max. recs in file   =    796851


           Memory utilization after 1st SCF pass: 
           Heap Space remaining (MW):       11.85            11852116
          Stack Space remaining (MW):       57.14            57135412

   convergence    iter        energy       DeltaE   RMS-Dens  Diis-err    time
 ---------------- ----- ----------------- --------- --------- ---------  ------
 d= 0,ls=0.0,diis     1  -2840.6046722419 -5.15D+03  4.91D-03  2.20D+00    21.0
                                                     4.91D-03  2.20D+00
 d= 0,ls=0.0,diis     2  -2839.9079172416  6.97D-01  3.13D-03  5.50D+00    30.8
                                                     3.13D-03  5.50D+00
 d= 0,ls=0.0,diis     3  -2840.9425990345 -1.03D+00  8.76D-04  1.89D-01    40.6
                                                     8.76D-04  1.89D-01
 d= 0,ls=0.0,diis     4  -2840.9776207880 -3.50D-02  3.20D-04  3.09D-02    50.4
                                                     3.20D-04  3.09D-02
 d= 0,ls=0.0,diis     5  -2840.9851818991 -7.56D-03  9.43D-05  4.50D-03    60.2
                                                     9.43D-05  4.50D-03
 d= 0,ls=0.0,diis     6  -2840.9860616678 -8.80D-04  2.06D-05  1.02D-04    70.0
                                                     2.06D-05  1.02D-04
 d= 0,ls=0.0,diis     7  -2840.9860876462 -2.60D-05  4.70D-06  6.15D-06    79.9
                                                     4.70D-06  6.15D-06
 d= 0,ls=0.0,diis     8  -2840.9860889066 -1.26D-06  1.62D-06  1.75D-06    89.7
                                                     1.62D-06  1.75D-06
 d= 0,ls=0.0,diis     9  -2840.9860892413 -3.35D-07  4.71D-07  3.94D-08    99.6
                                                     4.71D-07  3.94D-08


      Total SO-DFT energy =    -2840.986089253146
      One electron energy =    -8561.588618457428
           Coulomb energy =     3628.318027645690
    Exchange-Corr. energy =     -220.957875214806
 Nuclear repulsion energy =     2313.242376773399

 Numeric. integr. density =      186.000095070458

     Total iterative time =     94.2s



                       DFT Final Molecular Orbital Analysis
                       ------------------------------------

 Vector    1  Occ=1.000000D+00  E=-6.523343D+01
              MO Center=  0.0D+00,  0.0D+00,  0.0D+00, r^2= 0.0D+00
  Bfn.         Coefficient        Function           Bfn.         Coefficient        Function  
  ----     -------------------  ------------         ----     -------------------  ------------
   347    -0.783098   0.000000   2 Si s               365     0.616761   0.000000   3 Si s         

 Vector    2  Occ=1.000000D+00  E=-6.523343D+01
              MO Center=  2.5D-01,  3.9D-01, -1.8D-01, r^2= 2.2D+00
  Bfn.         Coefficient        Function           Bfn.         Coefficient        Function  
  ----     -------------------  ------------         ----     -------------------  ------------
    15    -0.783098   0.000000   2 Si s                33     0.616761   0.000000   3 Si s         

 Vector    3  Occ=1.000000D+00  E=-6.523343D+01
              MO Center=  0.0D+00,  0.0D+00,  0.0D+00, r^2= 0.0D+00
  Bfn.         Coefficient        Function           Bfn.         Coefficient        Function  
  ----     -------------------  ------------         ----     -------------------  ------------
   365    -0.783102   0.000000   3 Si s               347    -0.616767   0.000000   2 Si s         

 Vector    4  Occ=1.000000D+00  E=-6.523343D+01
              MO Center= -4.3D-01,  1.9D-01, -1.7D-01, r^2= 2.2D+00
  Bfn.         Coefficient        Function           Bfn.         Coefficient        Function  
  ----     -------------------  ------------         ----     -------------------  ------------
    33    -0.783102   0.000000   3 Si s                15    -0.616767   0.000000   2 Si s         

 Vector    5  Occ=1.000000D+00  E=-6.519384D+01
              MO Center=  0.0D+00,  0.0D+00,  0.0D+00, r^2= 0.0D+00
  Bfn.         Coefficient        Function           Bfn.         Coefficient        Function  
  ----     -------------------  ------------         ----     -------------------  ------------
   503    -0.722583   0.000000  12 Si s               539     0.686752   0.000000  14 Si s         

 Vector    6  Occ=1.000000D+00  E=-6.519384D+01
              MO Center=  5.0D-01, -1.1D+00,  2.4D+00, r^2= 5.7D+00
  Bfn.         Coefficient        Function           Bfn.         Coefficient        Function  
  ----     -------------------  ------------         ----     -------------------  ------------
   171    -0.722583   0.000000  12 Si s               207     0.686752   0.000000  14 Si s         

 Vector    7  Occ=1.000000D+00  E=-6.519383D+01
              MO Center=  0.0D+00,  0.0D+00,  0.0D+00, r^2= 0.0D+00
  Bfn.         Coefficient        Function           Bfn.         Coefficient        Function  
  ----     -------------------  ------------         ----     -------------------  ------------
   539     0.722587   0.000000  14 Si s               503     0.686757   0.000000  12 Si s         

 Vector    8  Occ=1.000000D+00  E=-6.519383D+01
              MO Center=  2.7D-01, -1.2D+00,  2.4D+00, r^2= 5.7D+00
  Bfn.         Coefficient        Function           Bfn.         Coefficient        Function  
  ----     -------------------  ------------         ----     -------------------  ------------
   207     0.722587   0.000000  14 Si s               171     0.686757   0.000000  12 Si s         

 Vector    9  Occ=1.000000D+00  E=-6.518857D+01
              MO Center=  5.8D-01, -1.7D+00, -2.3D+00, r^2= 5.7D+00
  Bfn.         Coefficient        Function           Bfn.         Coefficient        Function  
  ----     -------------------  ------------         ----     -------------------  ------------
   135    -0.719796   0.000000  10 Si s               225     0.689679   0.000000  15 Si s         

 Vector   10  Occ=1.000000D+00  E=-6.518857D+01
              MO Center=  0.0D+00,  0.0D+00,  0.0D+00, r^2= 0.0D+00
  Bfn.         Coefficient        Function           Bfn.         Coefficient        Function  
  ----     -------------------  ------------         ----     -------------------  ------------
   467    -0.719796   0.000000  10 Si s               557     0.689679   0.000000  15 Si s         

 Vector   11  Occ=1.000000D+00  E=-6.518856D+01
              MO Center=  3.8D-01, -1.7D+00, -2.3D+00, r^2= 5.7D+00
  Bfn.         Coefficient        Function           Bfn.         Coefficient        Function  
  ----     -------------------  ------------         ----     -------------------  ------------
   225    -0.719800   0.000000  15 Si s               135    -0.689684   0.000000  10 Si s         

 Vector   12  Occ=1.000000D+00  E=-6.518856D+01
              MO Center=  0.0D+00,  0.0D+00,  0.0D+00, r^2= 0.0D+00
  Bfn.         Coefficient        Function           Bfn.         Coefficient        Function  
  ----     -------------------  ------------         ----     -------------------  ------------
   557    -0.719800   0.000000  15 Si s               467    -0.689684   0.000000  10 Si s         

 Vector   13  Occ=1.000000D+00  E=-6.518612D+01
              MO Center= -3.3D-01,  2.4D+00,  2.7D-01, r^2= 1.4D+01
  Bfn.         Coefficient        Function           Bfn.         Coefficient        Function  
  ----     -------------------  ------------         ----     -------------------  ------------
   153    -0.738183   0.000000  11 Si s               189     0.669960   0.000000  13 Si s         

 Vector   14  Occ=1.000000D+00  E=-6.518612D+01
              MO Center=  0.0D+00,  0.0D+00,  0.0D+00, r^2= 0.0D+00
  Bfn.         Coefficient        Function           Bfn.         Coefficient        Function  
  ----     -------------------  ------------         ----     -------------------  ------------
   485    -0.738183   0.000000  11 Si s               521     0.669960   0.000000  13 Si s         

 Vector   15  Occ=1.000000D+00  E=-6.518611D+01
              MO Center= -1.0D+00,  2.2D+00,  2.8D-01, r^2= 1.4D+01
  Bfn.         Coefficient        Function           Bfn.         Coefficient        Function  
  ----     -------------------  ------------         ----     -------------------  ------------
   189    -0.738187   0.000000  13 Si s               153    -0.669964   0.000000  11 Si s         

 Vector   16  Occ=1.000000D+00  E=-6.518611D+01
              MO Center=  0.0D+00,  0.0D+00,  0.0D+00, r^2= 0.0D+00
  Bfn.         Coefficient        Function           Bfn.         Coefficient        Function  
  ----     -------------------  ------------         ----     -------------------  ------------
   521    -0.738187   0.000000  13 Si s               485    -0.669964   0.000000  11 Si s         

 Vector   17  Occ=1.000000D+00  E=-1.864466D+01
              MO Center=  0.0D+00,  0.0D+00,  0.0D+00, r^2= 0.0D+00
  Bfn.         Coefficient        Function           Bfn.         Coefficient        Function  
  ----     -------------------  ------------         ----     -------------------  ------------
   411     0.850288   0.000000   6 O  s               439    -0.521194   0.000000   8 O  s         

 Vector   18  Occ=1.000000D+00  E=-1.864466D+01
              MO Center=  9.7D-01, -3.3D-01,  1.1D+00, r^2= 2.6D+00
  Bfn.         Coefficient        Function           Bfn.         Coefficient        Function  
  ----     -------------------  ------------         ----     -------------------  ------------
    79     0.850288   0.000000   6 O  s               107    -0.521194   0.000000   8 O  s         

 Vector   19  Occ=1.000000D+00  E=-1.864466D+01
              MO Center=  0.0D+00,  0.0D+00,  0.0D+00, r^2= 0.0D+00
  Bfn.         Coefficient        Function           Bfn.         Coefficient        Function  
  ----     -------------------  ------------         ----     -------------------  ------------
   439    -0.850288   0.000000   8 O  s               411    -0.521193   0.000000   6 O  s         

 Vector   20  Occ=1.000000D+00  E=-1.864466D+01
              MO Center= -5.9D-01, -8.0D-01,  1.1D+00, r^2= 2.6D+00
  Bfn.         Coefficient        Function           Bfn.         Coefficient        Function  
  ----     -------------------  ------------         ----     -------------------  ------------
   107    -0.850288   0.000000   8 O  s                79    -0.521193   0.000000   6 O  s         

 Vector   21  Occ=1.000000D+00  E=-1.863654D+01
              MO Center=  1.9D+00,  2.4D-02, -1.5D+00, r^2= 1.3D-01
  Bfn.         Coefficient        Function           Bfn.         Coefficient        Function  
  ----     -------------------  ------------         ----     -------------------  ------------
    51     0.993181   0.000000   4 O  s                93    -0.090757   0.000000   7 O  s         

 Vector   22  Occ=1.000000D+00  E=-1.863654D+01
              MO Center=  0.0D+00,  0.0D+00,  0.0D+00, r^2= 0.0D+00
  Bfn.         Coefficient        Function           Bfn.         Coefficient        Function  
  ----     -------------------  ------------         ----     -------------------  ------------
   383     0.993181   0.000000   4 O  s               425    -0.090757   0.000000   7 O  s         

 Vector   23  Occ=1.000000D+00  E=-1.863654D+01
              MO Center=  0.0D+00,  0.0D+00,  0.0D+00, r^2= 0.0D+00
  Bfn.         Coefficient        Function           Bfn.         Coefficient        Function  
  ----     -------------------  ------------         ----     -------------------  ------------
   425     0.993181   0.000000   7 O  s               383     0.090756   0.000000   4 O  s         

 Vector   24  Occ=1.000000D+00  E=-1.863654D+01
              MO Center= -1.6D+00, -1.0D+00, -1.5D+00, r^2= 1.3D-01
  Bfn.         Coefficient        Function           Bfn.         Coefficient        Function  
  ----     -------------------  ------------         ----     -------------------  ------------
    93     0.993181   0.000000   7 O  s                51     0.090756   0.000000   4 O  s         

 Vector   25  Occ=1.000000D+00  E=-1.863546D+01
              MO Center=  1.8D+00,  2.3D+00, -2.0D-01, r^2= 1.5D-02
  Bfn.         Coefficient        Function           Bfn.         Coefficient        Function  
  ----     -------------------  ------------         ----     -------------------  ------------
    65    -0.997323   0.000000   5 O  s         

 Vector   26  Occ=1.000000D+00  E=-1.863546D+01
              MO Center=  0.0D+00,  0.0D+00,  0.0D+00, r^2= 0.0D+00
  Bfn.         Coefficient        Function           Bfn.         Coefficient        Function  
  ----     -------------------  ------------         ----     -------------------  ------------
   397    -0.997323   0.000000   5 O  s         

 Vector   27  Occ=1.000000D+00  E=-1.863546D+01
              MO Center=  0.0D+00,  0.0D+00,  0.0D+00, r^2= 0.0D+00
  Bfn.         Coefficient        Function           Bfn.         Coefficient        Function  
  ----     -------------------  ------------         ----     -------------------  ------------
   453     0.997323   0.000000   9 O  s         

 Vector   28  Occ=1.000000D+00  E=-1.863546D+01
              MO Center= -2.8D+00,  8.8D-01, -1.2D-01, r^2= 1.5D-02
  Bfn.         Coefficient        Function           Bfn.         Coefficient        Function  
  ----     -------------------  ------------         ----     -------------------  ------------
   121     0.997323   0.000000   9 O  s         

 Vector   29  Occ=1.000000D+00  E=-1.863393D+01
              MO Center= -2.2D-01,  7.3D-01, -2.0D-01, r^2= 1.5D-02
  Bfn.         Coefficient        Function           Bfn.         Coefficient        Function  
  ----     -------------------  ------------         ----     -------------------  ------------
     1    -0.997325   0.000000   1 O  s         

 Vector   30  Occ=1.000000D+00  E=-1.863393D+01
              MO Center=  0.0D+00,  0.0D+00,  0.0D+00, r^2= 0.0D+00
  Bfn.         Coefficient        Function           Bfn.         Coefficient        Function  
  ----     -------------------  ------------         ----     -------------------  ------------
   333    -0.997325   0.000000   1 O  s         

 Vector   31  Occ=1.000000D+00  E=-5.126971D+00
              MO Center= -3.5D-03,  3.2D-01, -1.8D-01, r^2= 2.4D+00
  Bfn.         Coefficient        Function           Bfn.         Coefficient        Function  
  ----     -------------------  ------------         ----     -------------------  ------------
    16    -0.753325   0.000000   2 Si s                34    -0.709545   0.000000   3 Si s         
    15     0.212298   0.000000   2 Si s                33     0.199959   0.000000   3 Si s         

 Vector   32  Occ=1.000000D+00  E=-5.126971D+00
              MO Center=  0.0D+00,  0.0D+00,  0.0D+00, r^2= 0.0D+00
  Bfn.         Coefficient        Function           Bfn.         Coefficient        Function  
  ----     -------------------  ------------         ----     -------------------  ------------
   348    -0.753325   0.000000   2 Si s               366    -0.709545   0.000000   3 Si s         
   347     0.212298   0.000000   2 Si s               365     0.199959   0.000000   3 Si s         

 Vector   33  Occ=1.000000D+00  E=-5.126965D+00
              MO Center= -1.8D-01,  2.6D-01, -1.7D-01, r^2= 2.4D+00
  Bfn.         Coefficient        Function           Bfn.         Coefficient        Function  
  ----     -------------------  ------------         ----     -------------------  ------------
    34     0.753241   0.000000   3 Si s                16    -0.709456   0.000000   2 Si s         
    33    -0.212296   0.000000   3 Si s                15     0.199957   0.000000   2 Si s         

 Vector   34  Occ=1.000000D+00  E=-5.126965D+00
              MO Center=  0.0D+00,  0.0D+00,  0.0D+00, r^2= 0.0D+00
  Bfn.         Coefficient        Function           Bfn.         Coefficient        Function  
  ----     -------------------  ------------         ----     -------------------  ------------
   366     0.753241   0.000000   3 Si s               348    -0.709456   0.000000   2 Si s         
   365    -0.212296   0.000000   3 Si s               347     0.199957   0.000000   2 Si s         

 Vector   35  Occ=1.000000D+00  E=-5.090431D+00
              MO Center=  2.6D+00, -4.7D-01,  2.4D+00, r^2= 3.9D-01
  Bfn.         Coefficient        Function           Bfn.         Coefficient        Function  
  ----     -------------------  ------------         ----     -------------------  ------------
   172    -1.028738   0.000000  12 Si s               171     0.289796   0.000000  12 Si s         
   208    -0.115974   0.000000  14 Si s               207     0.032671   0.000000  14 Si s         

 Vector   36  Occ=1.000000D+00  E=-5.090431D+00
              MO Center=  0.0D+00,  0.0D+00,  0.0D+00, r^2= 0.0D+00
  Bfn.         Coefficient        Function           Bfn.         Coefficient        Function  
  ----     -------------------  ------------         ----     -------------------  ------------
   504    -1.028738   0.000000  12 Si s               503     0.289796   0.000000  12 Si s         
   540    -0.115974   0.000000  14 Si s               539     0.032671   0.000000  14 Si s         

 Vector   37  Occ=1.000000D+00  E=-5.090431D+00
              MO Center=  0.0D+00,  0.0D+00,  0.0D+00, r^2= 0.0D+00
  Bfn.         Coefficient        Function           Bfn.         Coefficient        Function  
  ----     -------------------  ------------         ----     -------------------  ------------
   540    -1.028738   0.000000  14 Si s               539     0.289796   0.000000  14 Si s         
   504     0.115978   0.000000  12 Si s               503    -0.032670   0.000000  12 Si s         

 Vector   38  Occ=1.000000D+00  E=-5.090431D+00
              MO Center= -1.8D+00, -1.8D+00,  2.5D+00, r^2= 3.9D-01
  Bfn.         Coefficient        Function           Bfn.         Coefficient        Function  
  ----     -------------------  ------------         ----     -------------------  ------------
   208    -1.028738   0.000000  14 Si s               207     0.289796   0.000000  14 Si s         
   172     0.115978   0.000000  12 Si s               171    -0.032670   0.000000  12 Si s         

 Vector   39  Occ=1.000000D+00  E=-5.085524D+00
              MO Center=  0.0D+00,  0.0D+00,  0.0D+00, r^2= 0.0D+00
  Bfn.         Coefficient        Function           Bfn.         Coefficient        Function  
  ----     -------------------  ------------         ----     -------------------  ------------
   468     0.994758   0.000000  10 Si s               558     0.286806   0.000000  15 Si s         
   467    -0.280221   0.000000  10 Si s               557    -0.080795   0.000000  15 Si s         

 Vector   40  Occ=1.000000D+00  E=-5.085524D+00
              MO Center=  2.4D+00, -1.1D+00, -2.3D+00, r^2= 1.7D+00
  Bfn.         Coefficient        Function           Bfn.         Coefficient        Function  
  ----     -------------------  ------------         ----     -------------------  ------------
   136     0.994758   0.000000  10 Si s               226     0.286806   0.000000  15 Si s         
   135    -0.280221   0.000000  10 Si s               225    -0.080795   0.000000  15 Si s         

 Vector   41  Occ=1.000000D+00  E=-5.085524D+00
              MO Center=  0.0D+00,  0.0D+00,  0.0D+00, r^2= 0.0D+00
  Bfn.         Coefficient        Function           Bfn.         Coefficient        Function  
  ----     -------------------  ------------         ----     -------------------  ------------
   558    -0.994761   0.000000  15 Si s               468     0.286815   0.000000  10 Si s         
   557     0.280221   0.000000  15 Si s               467    -0.080792   0.000000  10 Si s         

 Vector   42  Occ=1.000000D+00  E=-5.085524D+00
              MO Center= -1.4D+00, -2.3D+00, -2.3D+00, r^2= 1.7D+00
  Bfn.         Coefficient        Function           Bfn.         Coefficient        Function  
  ----     -------------------  ------------         ----     -------------------  ------------
   226    -0.994761   0.000000  15 Si s               136     0.286815   0.000000  10 Si s         
   225     0.280221   0.000000  15 Si s               135    -0.080792   0.000000  10 Si s         

 Vector   43  Occ=1.000000D+00  E=-5.083316D+00
              MO Center=  0.0D+00,  0.0D+00,  0.0D+00, r^2= 0.0D+00
  Bfn.         Coefficient        Function           Bfn.         Coefficient        Function  
  ----     -------------------  ------------         ----     -------------------  ------------
   486     1.027159   0.000000  11 Si s               485    -0.289353   0.000000  11 Si s         
   522    -0.129243   0.000000  13 Si s               521     0.036412   0.000000  13 Si s         

 Vector   44  Occ=1.000000D+00  E=-5.083316D+00
              MO Center=  2.8D+00,  3.3D+00,  2.2D-01, r^2= 9.8D-01
  Bfn.         Coefficient        Function           Bfn.         Coefficient        Function  
  ----     -------------------  ------------         ----     -------------------  ------------
   154     1.027159   0.000000  11 Si s               153    -0.289353   0.000000  11 Si s         
   190    -0.129243   0.000000  13 Si s               189     0.036412   0.000000  13 Si s         

 Vector   45  Occ=1.000000D+00  E=-5.083315D+00
              MO Center= -4.2D+00,  1.2D+00,  3.4D-01, r^2= 9.8D-01
  Bfn.         Coefficient        Function           Bfn.         Coefficient        Function  
  ----     -------------------  ------------         ----     -------------------  ------------
   190     1.027161   0.000000  13 Si s               189    -0.289353   0.000000  13 Si s         
   154     0.129260   0.000000  11 Si s               153    -0.036409   0.000000  11 Si s         

 Vector   46  Occ=1.000000D+00  E=-5.083315D+00
              MO Center=  0.0D+00,  0.0D+00,  0.0D+00, r^2= 0.0D+00
  Bfn.         Coefficient        Function           Bfn.         Coefficient        Function  
  ----     -------------------  ------------         ----     -------------------  ------------
   522     1.027161   0.000000  13 Si s               521    -0.289353   0.000000  13 Si s         
   486     0.129260   0.000000  11 Si s               485    -0.036409   0.000000  11 Si s         

 Vector   47  Occ=1.000000D+00  E=-3.566274D+00
              MO Center=  0.0D+00,  0.0D+00,  0.0D+00, r^2= 0.0D+00
  Bfn.         Coefficient        Function           Bfn.         Coefficient        Function  
  ----     -------------------  ------------         ----     -------------------  ------------
   353     0.713825   0.000000   2 Si pz              352    -0.460078   0.000000   2 Si py        
   371     0.366530   0.000000   3 Si pz              370    -0.271262   0.000000   3 Si py        
   351     0.245752   0.000000   2 Si px              369     0.032970   0.000000   3 Si px        

 Vector   48  Occ=1.000000D+00  E=-3.566274D+00
              MO Center=  7.5D-01,  5.5D-01, -1.9D-01, r^2= 1.7D+00
  Bfn.         Coefficient        Function           Bfn.         Coefficient        Function  
  ----     -------------------  ------------         ----     -------------------  ------------
    21     0.713825   0.000000   2 Si pz               20    -0.460078   0.000000   2 Si py        
    39     0.366530   0.000000   3 Si pz               38    -0.271262   0.000000   3 Si py        
    19     0.245752   0.000000   2 Si px               37     0.032970   0.000000   3 Si px        

 Vector   49  Occ=1.000000D+00  E=-3.566273D+00
              MO Center=  0.0D+00,  0.0D+00,  0.0D+00, r^2= 0.0D+00
  Bfn.         Coefficient        Function           Bfn.         Coefficient        Function  
  ----     -------------------  ------------         ----     -------------------  ------------
   371    -0.722289   0.000000   3 Si pz              370     0.503945   0.000000   3 Si py        
   353     0.376232   0.000000   2 Si pz              352    -0.232736   0.000000   2 Si py        
   351     0.115464   0.000000   2 Si px              369    -0.077350   0.000000   3 Si px        

 Vector   50  Occ=1.000000D+00  E=-3.566273D+00
              MO Center= -9.4D-01,  3.6D-02, -1.6D-01, r^2= 1.7D+00
  Bfn.         Coefficient        Function           Bfn.         Coefficient        Function  
  ----     -------------------  ------------         ----     -------------------  ------------
    39    -0.722289   0.000000   3 Si pz               38     0.503945   0.000000   3 Si py        
    21     0.376232   0.000000   2 Si pz               20    -0.232736   0.000000   2 Si py        
    19     0.115464   0.000000   2 Si px               37    -0.077350   0.000000   3 Si px        

 Vector   51  Occ=1.000000D+00  E=-3.565690D+00
              MO Center= -5.9D-02,  3.0D-01, -1.8D-01, r^2= 2.4D+00
  Bfn.         Coefficient        Function           Bfn.         Coefficient        Function  
  ----     -------------------  ------------         ----     -------------------  ------------
    38     0.561874   0.000000   3 Si py               20     0.420783   0.000000   2 Si py        
    21     0.413088   0.000000   2 Si pz               19    -0.397873   0.000000   2 Si px        
    39     0.396331   0.000000   3 Si pz               37     0.108777   0.000000   3 Si px        

 Vector   52  Occ=1.000000D+00  E=-3.565690D+00
              MO Center=  0.0D+00,  0.0D+00,  0.0D+00, r^2= 0.0D+00
  Bfn.         Coefficient        Function           Bfn.         Coefficient        Function  
  ----     -------------------  ------------         ----     -------------------  ------------
   370     0.561874   0.000000   3 Si py              352     0.420783   0.000000   2 Si py        
   353     0.413088   0.000000   2 Si pz              351    -0.397873   0.000000   2 Si px        
   371     0.396331   0.000000   3 Si pz              369     0.108777   0.000000   3 Si px        

 Vector   53  Occ=1.000000D+00  E=-3.565676D+00
              MO Center= -1.2D-01,  2.8D-01, -1.7D-01, r^2= 2.4D+00
  Bfn.         Coefficient        Function           Bfn.         Coefficient        Function  
  ----     -------------------  ------------         ----     -------------------  ------------
    38    -0.585828   0.000000   3 Si py               20     0.437976   0.000000   2 Si py        
    39    -0.395370   0.000000   3 Si pz               21     0.394057   0.000000   2 Si pz        
    19    -0.370756   0.000000   2 Si px               37    -0.080248   0.000000   3 Si px        

 Vector   54  Occ=1.000000D+00  E=-3.565676D+00
              MO Center=  0.0D+00,  0.0D+00,  0.0D+00, r^2= 0.0D+00
  Bfn.         Coefficient        Function           Bfn.         Coefficient        Function  
  ----     -------------------  ------------         ----     -------------------  ------------
   370    -0.585828   0.000000   3 Si py              352     0.437976   0.000000   2 Si py        
   371    -0.395370   0.000000   3 Si pz              353     0.394057   0.000000   2 Si pz        
   351    -0.370756   0.000000   2 Si px              369    -0.080248   0.000000   3 Si px        

 Vector   55  Occ=1.000000D+00  E=-3.565309D+00
              MO Center=  7.1D-02,  3.4D-01, -1.8D-01, r^2= 2.4D+00
  Bfn.         Coefficient        Function           Bfn.         Coefficient        Function  
  ----     -------------------  ------------         ----     -------------------  ------------
    37    -0.653353   0.000000   3 Si px               19     0.578755   0.000000   2 Si px        
    20     0.454466   0.000000   2 Si py               39     0.102829   0.000000   3 Si pz        
    21     0.092157   0.000000   2 Si pz               38     0.055573   0.000000   3 Si py        

 Vector   56  Occ=1.000000D+00  E=-3.565309D+00
              MO Center=  0.0D+00,  0.0D+00,  0.0D+00, r^2= 0.0D+00
  Bfn.         Coefficient        Function           Bfn.         Coefficient        Function  
  ----     -------------------  ------------         ----     -------------------  ------------
   369    -0.653353   0.000000   3 Si px              351     0.578755   0.000000   2 Si px        
   352     0.454466   0.000000   2 Si py              371     0.102829   0.000000   3 Si pz        
   353     0.092157   0.000000   2 Si pz              370     0.055573   0.000000   3 Si py        

 Vector   57  Occ=1.000000D+00  E=-3.565306D+00
              MO Center= -2.5D-01,  2.4D-01, -1.7D-01, r^2= 2.4D+00
  Bfn.         Coefficient        Function           Bfn.         Coefficient        Function  
  ----     -------------------  ------------         ----     -------------------  ------------
    37     0.733686   0.000000   3 Si px               19     0.534870   0.000000   2 Si px        
    20     0.386400   0.000000   2 Si py               39    -0.102989   0.000000   3 Si pz        
    21     0.071497   0.000000   2 Si pz               38    -0.032572   0.000000   3 Si py        

 Vector   58  Occ=1.000000D+00  E=-3.565306D+00
              MO Center=  0.0D+00,  0.0D+00,  0.0D+00, r^2= 0.0D+00
  Bfn.         Coefficient        Function           Bfn.         Coefficient        Function  
  ----     -------------------  ------------         ----     -------------------  ------------
   369     0.733686   0.000000   3 Si px              351     0.534870   0.000000   2 Si px        
   352     0.386400   0.000000   2 Si py              371    -0.102989   0.000000   3 Si pz        
   353     0.071497   0.000000   2 Si pz              370    -0.032572   0.000000   3 Si py        

 Vector   59  Occ=1.000000D+00  E=-3.530631D+00
              MO Center=  2.2D+00, -5.9D-01,  2.4D+00, r^2= 2.0D+00
  Bfn.         Coefficient        Function           Bfn.         Coefficient        Function  
  ----     -------------------  ------------         ----     -------------------  ------------
   177     0.794268   0.000000  12 Si pz              175     0.470356   0.000000  12 Si px        
   213    -0.259318   0.000000  14 Si pz              176    -0.213173   0.000000  12 Si py        
   212     0.138527   0.000000  14 Si py              211     0.080182   0.000000  14 Si px        

 Vector   60  Occ=1.000000D+00  E=-3.530631D+00
              MO Center=  0.0D+00,  0.0D+00,  0.0D+00, r^2= 0.0D+00
  Bfn.         Coefficient        Function           Bfn.         Coefficient        Function  
  ----     -------------------  ------------         ----     -------------------  ------------
   509     0.794268   0.000000  12 Si pz              507     0.470356   0.000000  12 Si px        
   545    -0.259318   0.000000  14 Si pz              508    -0.213173   0.000000  12 Si py        
   544     0.138527   0.000000  14 Si py              543     0.080182   0.000000  14 Si px        

 Vector   61  Occ=1.000000D+00  E=-3.530630D+00
              MO Center= -1.5D+00, -1.7D+00,  2.5D+00, r^2= 2.0D+00
  Bfn.         Coefficient        Function           Bfn.         Coefficient        Function  
  ----     -------------------  ------------         ----     -------------------  ------------
   213     0.806009   0.000000  14 Si pz              212    -0.430754   0.000000  14 Si py        
   177     0.255407   0.000000  12 Si pz              211    -0.249652   0.000000  14 Si px        
   175     0.151400   0.000000  12 Si px              176    -0.068523   0.000000  12 Si py        

 Vector   62  Occ=1.000000D+00  E=-3.530630D+00
              MO Center=  0.0D+00,  0.0D+00,  0.0D+00, r^2= 0.0D+00
  Bfn.         Coefficient        Function           Bfn.         Coefficient        Function  
  ----     -------------------  ------------         ----     -------------------  ------------
   545     0.806009   0.000000  14 Si pz              544    -0.430754   0.000000  14 Si py        
   509     0.255407   0.000000  12 Si pz              543    -0.249652   0.000000  14 Si px        
   507     0.151400   0.000000  12 Si px              508    -0.068523   0.000000  12 Si py        

 Vector   63  Occ=1.000000D+00  E=-3.527007D+00
              MO Center=  0.0D+00,  0.0D+00,  0.0D+00, r^2= 0.0D+00
  Bfn.         Coefficient        Function           Bfn.         Coefficient        Function  
  ----     -------------------  ------------         ----     -------------------  ------------
   508     0.962720   0.000000  12 Si py              509     0.179456   0.000000  12 Si pz        
   507     0.133295   0.000000  12 Si px              544    -0.089404   0.000000  14 Si py        
   543     0.073100   0.000000  14 Si px              545    -0.025205   0.000000  14 Si pz        

 Vector   64  Occ=1.000000D+00  E=-3.527007D+00
              MO Center=  2.6D+00, -4.8D-01,  2.4D+00, r^2= 4.2D-01
  Bfn.         Coefficient        Function           Bfn.         Coefficient        Function  
  ----     -------------------  ------------         ----     -------------------  ------------
   176     0.962720   0.000000  12 Si py              177     0.179456   0.000000  12 Si pz        
   175     0.133295   0.000000  12 Si px              212    -0.089404   0.000000  14 Si py        
   211     0.073100   0.000000  14 Si px              213    -0.025205   0.000000  14 Si pz        

 Vector   65  Occ=1.000000D+00  E=-3.527007D+00
              MO Center=  0.0D+00,  0.0D+00,  0.0D+00, r^2= 0.0D+00
  Bfn.         Coefficient        Function           Bfn.         Coefficient        Function  
  ----     -------------------  ------------         ----     -------------------  ------------
   544     0.728981   0.000000  14 Si py              543    -0.639282   0.000000  14 Si px        
   545     0.191603   0.000000  14 Si pz              508     0.114980   0.000000  12 Si py        

 Vector   66  Occ=1.000000D+00  E=-3.527007D+00
              MO Center= -1.8D+00, -1.8D+00,  2.5D+00, r^2= 4.2D-01
  Bfn.         Coefficient        Function           Bfn.         Coefficient        Function  
  ----     -------------------  ------------         ----     -------------------  ------------
   212     0.728981   0.000000  14 Si py              211    -0.639282   0.000000  14 Si px        
   213     0.191603   0.000000  14 Si pz              176     0.114980   0.000000  12 Si py        

 Vector   67  Occ=1.000000D+00  E=-3.526909D+00
              MO Center=  7.8D-01, -1.0D+00,  2.4D+00, r^2= 5.6D+00
  Bfn.         Coefficient        Function           Bfn.         Coefficient        Function  
  ----     -------------------  ------------         ----     -------------------  ------------
   175    -0.652433   0.000000  12 Si px              211     0.456718   0.000000  14 Si px        
   177     0.392061   0.000000  12 Si pz              212     0.322364   0.000000  14 Si py        
   213     0.313832   0.000000  14 Si pz        

 Vector   68  Occ=1.000000D+00  E=-3.526909D+00
              MO Center=  0.0D+00,  0.0D+00,  0.0D+00, r^2= 0.0D+00
  Bfn.         Coefficient        Function           Bfn.         Coefficient        Function  
  ----     -------------------  ------------         ----     -------------------  ------------
   507    -0.652433   0.000000  12 Si px              543     0.456718   0.000000  14 Si px        
   509     0.392061   0.000000  12 Si pz              544     0.322364   0.000000  14 Si py        
   545     0.313832   0.000000  14 Si pz        

 Vector   69  Occ=1.000000D+00  E=-3.526908D+00
              MO Center= -2.5D-03, -1.3D+00,  2.4D+00, r^2= 5.6D+00
  Bfn.         Coefficient        Function           Bfn.         Coefficient        Function  
  ----     -------------------  ------------         ----     -------------------  ------------
   175    -0.550210   0.000000  12 Si px              211    -0.547171   0.000000  14 Si px        
   212    -0.377690   0.000000  14 Si py              213    -0.371162   0.000000  14 Si pz        
   177     0.328831   0.000000  12 Si pz        

 Vector   70  Occ=1.000000D+00  E=-3.526908D+00
              MO Center=  0.0D+00,  0.0D+00,  0.0D+00, r^2= 0.0D+00
  Bfn.         Coefficient        Function           Bfn.         Coefficient        Function  
  ----     -------------------  ------------         ----     -------------------  ------------
   507    -0.550210   0.000000  12 Si px              543    -0.547171   0.000000  14 Si px        
   544    -0.377690   0.000000  14 Si py              545    -0.371162   0.000000  14 Si pz        
   509     0.328831   0.000000  12 Si pz        

 Vector   71  Occ=1.000000D+00  E=-3.525500D+00
              MO Center=  2.7D+00, -1.0D+00, -2.3D+00, r^2= 4.2D-01
  Bfn.         Coefficient        Function           Bfn.         Coefficient        Function  
  ----     -------------------  ------------         ----     -------------------  ------------
   140    -0.640027   0.000000  10 Si py              139     0.557201   0.000000  10 Si px        
   141    -0.506118   0.000000  10 Si pz              230    -0.101811   0.000000  15 Si py        
   231    -0.059521   0.000000  15 Si pz        

 Vector   72  Occ=1.000000D+00  E=-3.525500D+00
              MO Center=  0.0D+00,  0.0D+00,  0.0D+00, r^2= 0.0D+00
  Bfn.         Coefficient        Function           Bfn.         Coefficient        Function  
  ----     -------------------  ------------         ----     -------------------  ------------
   472    -0.640027   0.000000  10 Si py              471     0.557201   0.000000  10 Si px        
   473    -0.506118   0.000000  10 Si pz              562    -0.101811   0.000000  15 Si py        
   563    -0.059521   0.000000  15 Si pz        

 Vector   73  Occ=1.000000D+00  E=-3.525499D+00
              MO Center= -1.7D+00, -2.4D+00, -2.3D+00, r^2= 4.2D-01
  Bfn.         Coefficient        Function           Bfn.         Coefficient        Function  
  ----     -------------------  ------------         ----     -------------------  ------------
   230     0.846035   0.000000  15 Si py              231     0.494974   0.000000  15 Si pz        
   229     0.124455   0.000000  15 Si px              140    -0.077090   0.000000  10 Si py        
   139     0.066935   0.000000  10 Si px              141    -0.060941   0.000000  10 Si pz        

 Vector   74  Occ=1.000000D+00  E=-3.525499D+00
              MO Center=  0.0D+00,  0.0D+00,  0.0D+00, r^2= 0.0D+00
  Bfn.         Coefficient        Function           Bfn.         Coefficient        Function  
  ----     -------------------  ------------         ----     -------------------  ------------
   562     0.846035   0.000000  15 Si py              563     0.494974   0.000000  15 Si pz        
   561     0.124455   0.000000  15 Si px              472    -0.077090   0.000000  10 Si py        
   471     0.066935   0.000000  10 Si px              473    -0.060941   0.000000  10 Si pz        

 Vector   75  Occ=1.000000D+00  E=-3.523256D+00
              MO Center=  2.9D+00,  3.4D+00,  2.2D-01, r^2= 1.1D-01
  Bfn.         Coefficient        Function           Bfn.         Coefficient        Function  
  ----     -------------------  ------------         ----     -------------------  ------------
   157     0.692975   0.000000  11 Si px              158     0.667292   0.000000  11 Si py        
   159     0.254364   0.000000  11 Si pz        

 Vector   76  Occ=1.000000D+00  E=-3.523256D+00
              MO Center=  0.0D+00,  0.0D+00,  0.0D+00, r^2= 0.0D+00
  Bfn.         Coefficient        Function           Bfn.         Coefficient        Function  
  ----     -------------------  ------------         ----     -------------------  ------------
   489     0.692975   0.000000  11 Si px              490     0.667292   0.000000  11 Si py        
   491     0.254364   0.000000  11 Si pz        

 Vector   77  Occ=1.000000D+00  E=-3.523256D+00
              MO Center=  0.0D+00,  0.0D+00,  0.0D+00, r^2= 0.0D+00
  Bfn.         Coefficient        Function           Bfn.         Coefficient        Function  
  ----     -------------------  ------------         ----     -------------------  ------------
   525    -0.938531   0.000000  13 Si px              527     0.281055   0.000000  13 Si pz        
   526     0.174248   0.000000  13 Si py        

 Vector   78  Occ=1.000000D+00  E=-3.523256D+00
              MO Center= -4.3D+00,  1.2D+00,  3.4D-01, r^2= 1.1D-01
  Bfn.         Coefficient        Function           Bfn.         Coefficient        Function  
  ----     -------------------  ------------         ----     -------------------  ------------
   193    -0.938531   0.000000  13 Si px              195     0.281055   0.000000  13 Si pz        
   194     0.174248   0.000000  13 Si py        

 Vector   79  Occ=1.000000D+00  E=-3.522091D+00
              MO Center=  1.8D+00, -1.3D+00, -2.3D+00, r^2= 3.7D+00
  Bfn.         Coefficient        Function           Bfn.         Coefficient        Function  
  ----     -------------------  ------------         ----     -------------------  ------------
   140    -0.667247   0.000000  10 Si py              141     0.499448   0.000000  10 Si pz        
   229     0.324331   0.000000  15 Si px              139    -0.312672   0.000000  10 Si px        
   231     0.240245   0.000000  15 Si pz              230    -0.188370   0.000000  15 Si py        

 Vector   80  Occ=1.000000D+00  E=-3.522091D+00
              MO Center=  0.0D+00,  0.0D+00,  0.0D+00, r^2= 0.0D+00
  Bfn.         Coefficient        Function           Bfn.         Coefficient        Function  
  ----     -------------------  ------------         ----     -------------------  ------------
   472    -0.667247   0.000000  10 Si py              473     0.499448   0.000000  10 Si pz        
   561     0.324331   0.000000  15 Si px              471    -0.312672   0.000000  10 Si px        
   563     0.240245   0.000000  15 Si pz              562    -0.188370   0.000000  15 Si py        

 Vector   81  Occ=1.000000D+00  E=-3.522091D+00
              MO Center= -8.9D-01, -2.1D+00, -2.3D+00, r^2= 3.7D+00
  Bfn.         Coefficient        Function           Bfn.         Coefficient        Function  
  ----     -------------------  ------------         ----     -------------------  ------------
   229     0.642226   0.000000  15 Si px              231     0.486190   0.000000  15 Si pz        
   230    -0.378921   0.000000  15 Si py              140     0.333170   0.000000  10 Si py        
   141    -0.252813   0.000000  10 Si pz              139     0.153168   0.000000  10 Si px        

 Vector   82  Occ=1.000000D+00  E=-3.522091D+00
              MO Center=  0.0D+00,  0.0D+00,  0.0D+00, r^2= 0.0D+00
  Bfn.         Coefficient        Function           Bfn.         Coefficient        Function  
  ----     -------------------  ------------         ----     -------------------  ------------
   561     0.642226   0.000000  15 Si px              563     0.486190   0.000000  15 Si pz        
   562    -0.378921   0.000000  15 Si py              472     0.333170   0.000000  10 Si py        
   473    -0.252813   0.000000  10 Si pz              471     0.153168   0.000000  10 Si px        

 Vector   83  Occ=1.000000D+00  E=-3.521910D+00
              MO Center=  1.0D+00, -1.5D+00, -2.3D+00, r^2= 5.4D+00
  Bfn.         Coefficient        Function           Bfn.         Coefficient        Function  
  ----     -------------------  ------------         ----     -------------------  ------------
   139    -0.586094   0.000000  10 Si px              141    -0.510692   0.000000  10 Si pz        
   229     0.413905   0.000000  15 Si px              231    -0.413635   0.000000  15 Si pz        
   230     0.181000   0.000000  15 Si py              140    -0.106468   0.000000  10 Si py        

 Vector   84  Occ=1.000000D+00  E=-3.521910D+00
              MO Center=  0.0D+00,  0.0D+00,  0.0D+00, r^2= 0.0D+00
  Bfn.         Coefficient        Function           Bfn.         Coefficient        Function  
  ----     -------------------  ------------         ----     -------------------  ------------
   471    -0.586094   0.000000  10 Si px              473    -0.510692   0.000000  10 Si pz        
   561     0.413905   0.000000  15 Si px              563    -0.413635   0.000000  15 Si pz        
   562     0.181000   0.000000  15 Si py              472    -0.106468   0.000000  10 Si py        

 Vector   85  Occ=1.000000D+00  E=-3.521908D+00
              MO Center=  0.0D+00,  0.0D+00,  0.0D+00, r^2= 0.0D+00
  Bfn.         Coefficient        Function           Bfn.         Coefficient        Function  
  ----     -------------------  ------------         ----     -------------------  ------------
   561    -0.534928   0.000000  15 Si px              563     0.526221   0.000000  15 Si pz        
   471    -0.459389   0.000000  10 Si px              473    -0.395728   0.000000  10 Si pz        
   562    -0.229316   0.000000  15 Si py              472    -0.086766   0.000000  10 Si py        

 Vector   86  Occ=1.000000D+00  E=-3.521908D+00
              MO Center= -7.3D-02, -1.9D+00, -2.3D+00, r^2= 5.4D+00
  Bfn.         Coefficient        Function           Bfn.         Coefficient        Function  
  ----     -------------------  ------------         ----     -------------------  ------------
   229    -0.534928   0.000000  15 Si px              231     0.526221   0.000000  15 Si pz        
   139    -0.459389   0.000000  10 Si px              141    -0.395728   0.000000  10 Si pz        
   230    -0.229316   0.000000  15 Si py              140    -0.086766   0.000000  10 Si py        

 Vector   87  Occ=1.000000D+00  E=-3.519861D+00
              MO Center=  0.0D+00,  0.0D+00,  0.0D+00, r^2= 0.0D+00
  Bfn.         Coefficient        Function           Bfn.         Coefficient        Function  
  ----     -------------------  ------------         ----     -------------------  ------------
   489    -0.663811   0.000000  11 Si px              490     0.504139   0.000000  11 Si py        
   491     0.485733   0.000000  11 Si pz              526    -0.201217   0.000000  13 Si py        
   527    -0.119317   0.000000  13 Si pz              525    -0.073123   0.000000  13 Si px        

 Vector   88  Occ=1.000000D+00  E=-3.519861D+00
              MO Center=  2.5D+00,  3.2D+00,  2.3D-01, r^2= 3.3D+00
  Bfn.         Coefficient        Function           Bfn.         Coefficient        Function  
  ----     -------------------  ------------         ----     -------------------  ------------
   157    -0.663811   0.000000  11 Si px              158     0.504139   0.000000  11 Si py        
   159     0.485733   0.000000  11 Si pz              194    -0.201217   0.000000  13 Si py        
   195    -0.119317   0.000000  13 Si pz              193    -0.073123   0.000000  13 Si px        

 Vector   89  Occ=1.000000D+00  E=-3.519860D+00
              MO Center= -3.8D+00,  1.3D+00,  3.3D-01, r^2= 3.3D+00
  Bfn.         Coefficient        Function           Bfn.         Coefficient        Function  
  ----     -------------------  ------------         ----     -------------------  ------------
   194     0.791599   0.000000  13 Si py              195     0.470367   0.000000  13 Si pz        
   193     0.287859   0.000000  13 Si px              157    -0.168581   0.000000  11 Si px        
   158     0.127982   0.000000  11 Si py              159     0.123582   0.000000  11 Si pz        

 Vector   90  Occ=1.000000D+00  E=-3.519860D+00
              MO Center=  0.0D+00,  0.0D+00,  0.0D+00, r^2= 0.0D+00
  Bfn.         Coefficient        Function           Bfn.         Coefficient        Function  
  ----     -------------------  ------------         ----     -------------------  ------------
   526     0.791599   0.000000  13 Si py              527     0.470367   0.000000  13 Si pz        
   525     0.287859   0.000000  13 Si px              489    -0.168581   0.000000  11 Si px        
   490     0.127982   0.000000  11 Si py              491     0.123582   0.000000  11 Si pz        

 Vector   91  Occ=1.000000D+00  E=-3.519762D+00
              MO Center=  2.8D+00,  3.3D+00,  2.2D-01, r^2= 1.2D+00
  Bfn.         Coefficient        Function           Bfn.         Coefficient        Function  
  ----     -------------------  ------------         ----     -------------------  ------------
   159    -0.813411   0.000000  11 Si pz              158     0.518863   0.000000  11 Si py        
   157    -0.201136   0.000000  11 Si px              195     0.115372   0.000000  13 Si pz        
   194    -0.075739   0.000000  13 Si py        

 Vector   92  Occ=1.000000D+00  E=-3.519762D+00
              MO Center=  0.0D+00,  0.0D+00,  0.0D+00, r^2= 0.0D+00
  Bfn.         Coefficient        Function           Bfn.         Coefficient        Function  
  ----     -------------------  ------------         ----     -------------------  ------------
   491    -0.813411   0.000000  11 Si pz              490     0.518863   0.000000  11 Si py        
   489    -0.201136   0.000000  11 Si px              527     0.115372   0.000000  13 Si pz        
   526    -0.075739   0.000000  13 Si py        

 Vector   93  Occ=1.000000D+00  E=-3.519761D+00
              MO Center=  0.0D+00,  0.0D+00,  0.0D+00, r^2= 0.0D+00
  Bfn.         Coefficient        Function           Bfn.         Coefficient        Function  
  ----     -------------------  ------------         ----     -------------------  ------------
   527     0.814244   0.000000  13 Si pz              526    -0.536208   0.000000  13 Si py        
   525     0.144226   0.000000  13 Si px              491     0.115052   0.000000  11 Si pz        
   490    -0.073562   0.000000  11 Si py              489     0.028620   0.000000  11 Si px        

 Vector   94  Occ=1.000000D+00  E=-3.519761D+00
              MO Center= -4.1D+00,  1.2D+00,  3.4D-01, r^2= 1.2D+00
  Bfn.         Coefficient        Function           Bfn.         Coefficient        Function  
  ----     -------------------  ------------         ----     -------------------  ------------
   195     0.814244   0.000000  13 Si pz              194    -0.536208   0.000000  13 Si py        
   193     0.144226   0.000000  13 Si px              159     0.115052   0.000000  11 Si pz        
   158    -0.073562   0.000000  11 Si py              157     0.028620   0.000000  11 Si px        

 Vector   95  Occ=1.000000D+00  E=-9.930487D-01
              MO Center=  0.0D+00,  0.0D+00,  0.0D+00, r^2= 0.0D+00
  Bfn.         Coefficient        Function           Bfn.         Coefficient        Function  
  ----     -------------------  ------------         ----     -------------------  ------------
   334    -0.231626   0.000000   1 O  s               335     0.223000   0.000000   1 O  s         
   412    -0.186352   0.000000   6 O  s               440    -0.186348   0.000000   8 O  s         
   413     0.179815   0.000000   6 O  s               441     0.179810   0.000000   8 O  s         
   349     0.155683   0.000000   2 Si s               367     0.155679   0.000000   3 Si s         
   384    -0.148325   0.000000   4 O  s               426    -0.148317   0.000000   7 O  s         

 Vector   96  Occ=1.000000D+00  E=-9.930487D-01
              MO Center= -4.5D-02,  1.5D-01, -3.2D-02, r^2= 4.8D+00
  Bfn.         Coefficient        Function           Bfn.         Coefficient        Function  
  ----     -------------------  ------------         ----     -------------------  ------------
     2    -0.231626   0.000000   1 O  s                 3     0.223000   0.000000   1 O  s         
    80    -0.186352   0.000000   6 O  s               108    -0.186348   0.000000   8 O  s         
    81     0.179815   0.000000   6 O  s               109     0.179810   0.000000   8 O  s         
    17     0.155683   0.000000   2 Si s                35     0.155679   0.000000   3 Si s         
    52    -0.148325   0.000000   4 O  s                94    -0.148317   0.000000   7 O  s         

 Vector   97  Occ=1.000000D+00  E=-9.786790D-01
              MO Center=  0.0D+00,  0.0D+00,  0.0D+00, r^2= 0.0D+00
  Bfn.         Coefficient        Function           Bfn.         Coefficient        Function  
  ----     -------------------  ------------         ----     -------------------  ------------
   440    -0.232658   0.000000   8 O  s               412     0.232647   0.000000   6 O  s         
   441     0.224128   0.000000   8 O  s               413    -0.224119   0.000000   6 O  s         
   426    -0.169794   0.000000   7 O  s               384     0.169793   0.000000   4 O  s         
   427     0.165583   0.000000   7 O  s               385    -0.165582   0.000000   4 O  s         
   454    -0.151633   0.000000   9 O  s               398     0.151633   0.000000   5 O  s         

 Vector   98  Occ=1.000000D+00  E=-9.786790D-01
              MO Center=  2.2D-02, -6.6D-02,  1.1D-01, r^2= 6.3D+00
  Bfn.         Coefficient        Function           Bfn.         Coefficient        Function  
  ----     -------------------  ------------         ----     -------------------  ------------
   108     0.232658   0.000000   8 O  s                80    -0.232647   0.000000   6 O  s         
   109    -0.224128   0.000000   8 O  s                81     0.224119   0.000000   6 O  s         
    94     0.169794   0.000000   7 O  s                52    -0.169793   0.000000   4 O  s         
    95    -0.165583   0.000000   7 O  s                53     0.165582   0.000000   4 O  s         
   122     0.151633   0.000000   9 O  s                66    -0.151633   0.000000   5 O  s         

 Vector   99  Occ=1.000000D+00  E=-9.467778D-01
              MO Center=  0.0D+00,  0.0D+00,  0.0D+00, r^2= 0.0D+00
  Bfn.         Coefficient        Function           Bfn.         Coefficient        Function  
  ----     -------------------  ------------         ----     -------------------  ------------
   412     0.283192   0.000000   6 O  s               440     0.283148   0.000000   8 O  s         
   413    -0.235918   0.000000   6 O  s               441    -0.235881   0.000000   8 O  s         
   384    -0.167751   0.000000   4 O  s               426    -0.167720   0.000000   7 O  s         
   385     0.145212   0.000000   4 O  s               427     0.145185   0.000000   7 O  s         
   411    -0.135735   0.000000   6 O  s               439    -0.135715   0.000000   8 O  s         

 Vector  100  Occ=1.000000D+00  E=-9.467778D-01
              MO Center=  1.0D-01, -3.2D-01,  3.6D-01, r^2= 5.7D+00
  Bfn.         Coefficient        Function           Bfn.         Coefficient        Function  
  ----     -------------------  ------------         ----     -------------------  ------------
    80    -0.283192   0.000000   6 O  s               108    -0.283148   0.000000   8 O  s         
    81     0.235918   0.000000   6 O  s               109     0.235881   0.000000   8 O  s         
    52     0.167751   0.000000   4 O  s                94     0.167720   0.000000   7 O  s         
    53    -0.145212   0.000000   4 O  s                95    -0.145185   0.000000   7 O  s         
    79     0.135735   0.000000   6 O  s               107     0.135715   0.000000   8 O  s         

 Vector  101  Occ=1.000000D+00  E=-9.449989D-01
              MO Center=  0.0D+00,  0.0D+00,  0.0D+00, r^2= 0.0D+00
  Bfn.         Coefficient        Function           Bfn.         Coefficient        Function  
  ----     -------------------  ------------         ----     -------------------  ------------
   440    -0.249949   0.000000   8 O  s               412     0.249904   0.000000   6 O  s         
   441     0.213539   0.000000   8 O  s               413    -0.213502   0.000000   6 O  s         
   426     0.209977   0.000000   7 O  s               384    -0.209957   0.000000   4 O  s         
   427    -0.186312   0.000000   7 O  s               385     0.186293   0.000000   4 O  s         
   454     0.128762   0.000000   9 O  s               398    -0.128746   0.000000   5 O  s         

 Vector  102  Occ=1.000000D+00  E=-9.449989D-01
              MO Center=  7.9D-02, -2.6D-01,  8.5D-03, r^2= 6.4D+00
  Bfn.         Coefficient        Function           Bfn.         Coefficient        Function  
  ----     -------------------  ------------         ----     -------------------  ------------
   108    -0.249949   0.000000   8 O  s                80     0.249904   0.000000   6 O  s         
[...]

 Vector  656  Occ=0.000000D+00  E= 2.687646D+00
              MO Center= -3.7D-01,  1.2D+00, -1.6D-01, r^2= 6.2D+00
  Bfn.         Coefficient        Function           Bfn.         Coefficient        Function  
  ----     -------------------  ------------         ----     -------------------  ------------
     3     2.377799   0.000000   1 O  s               123    -2.142754   0.000000   9 O  s         
    67    -2.142736   0.000000   5 O  s                40     1.537537   0.000000   3 Si px        
    22    -1.215140   0.000000   2 Si px               23    -0.949277   0.000000   2 Si py        
   196    -0.848332   0.000000  13 Si px                2     0.818873   0.000000   1 O  s         
    46    -0.761888   0.000000   3 Si d -2            122    -0.733097   0.000000   9 O  s         

 Vector  657  Occ=0.000000D+00  E= 2.801547D+00
              MO Center=  0.0D+00,  0.0D+00,  0.0D+00, r^2= 0.0D+00
  Bfn.         Coefficient        Function           Bfn.         Coefficient        Function  
  ----     -------------------  ------------         ----     -------------------  ------------
   455    -1.847097   0.000000   9 O  s               399     1.847095   0.000000   5 O  s         
   427     1.794889   0.000000   7 O  s               385    -1.794830   0.000000   4 O  s         
   355     1.209547   0.000000   2 Si py              373    -1.009297   0.000000   3 Si py        
   528    -0.728791   0.000000  13 Si px              372     0.660307   0.000000   3 Si px        
   565     0.652940   0.000000  15 Si py              413    -0.637545   0.000000   6 O  s         

 Vector  658  Occ=0.000000D+00  E= 2.801547D+00
              MO Center= -1.8D-01,  5.4D-01, -6.5D-01, r^2= 8.1D+00
  Bfn.         Coefficient        Function           Bfn.         Coefficient        Function  
  ----     -------------------  ------------         ----     -------------------  ------------
   123    -1.847097   0.000000   9 O  s                67     1.847095   0.000000   5 O  s         
    95     1.794889   0.000000   7 O  s                53    -1.794830   0.000000   4 O  s         
    23     1.209547   0.000000   2 Si py               41    -1.009297   0.000000   3 Si py        
   196    -0.728791   0.000000  13 Si px               40     0.660307   0.000000   3 Si px        
   233     0.652940   0.000000  15 Si py               81    -0.637545   0.000000   6 O  s         

 Vector  659  Occ=0.000000D+00  E= 2.835988D+00
              MO Center=  0.0D+00,  0.0D+00,  0.0D+00, r^2= 0.0D+00
  Bfn.         Coefficient        Function           Bfn.         Coefficient        Function  
  ----     -------------------  ------------         ----     -------------------  ------------
   413    -2.584498   0.000000   6 O  s               441     2.584393   0.000000   8 O  s         
   374     1.310667   0.000000   3 Si pz              356    -1.308065   0.000000   2 Si pz        
   385     1.040754   0.000000   4 O  s               427    -1.040688   0.000000   7 O  s         
   548    -0.874237   0.000000  14 Si pz              412    -0.866076   0.000000   6 O  s         
   440     0.866040   0.000000   8 O  s               512     0.862583   0.000000  12 Si pz        

 Vector  660  Occ=0.000000D+00  E= 2.835988D+00
              MO Center=  1.8D-01, -5.6D-01,  7.2D-01, r^2= 6.1D+00
  Bfn.         Coefficient        Function           Bfn.         Coefficient        Function  
  ----     -------------------  ------------         ----     -------------------  ------------
    81    -2.584498   0.000000   6 O  s               109     2.584393   0.000000   8 O  s         
    42     1.310667   0.000000   3 Si pz               24    -1.308065   0.000000   2 Si pz        
    53     1.040754   0.000000   4 O  s                95    -1.040688   0.000000   7 O  s         
   216    -0.874237   0.000000  14 Si pz               80    -0.866076   0.000000   6 O  s         
   108     0.866040   0.000000   8 O  s               180     0.862583   0.000000  12 Si pz        

 Vector  661  Occ=0.000000D+00  E= 2.843985D+00
              MO Center=  0.0D+00,  0.0D+00,  0.0D+00, r^2= 0.0D+00
  Bfn.         Coefficient        Function           Bfn.         Coefficient        Function  
  ----     -------------------  ------------         ----     -------------------  ------------
   385     2.088773   0.000000   4 O  s               427     2.088741   0.000000   7 O  s         
   441    -1.565186   0.000000   8 O  s               413    -1.565068   0.000000   6 O  s         
   356    -1.344173   0.000000   2 Si pz              374    -1.331438   0.000000   3 Si pz        
   335    -1.024902   0.000000   1 O  s               565     0.693677   0.000000  15 Si py        
   384     0.678323   0.000000   4 O  s               426     0.678313   0.000000   7 O  s         

 Vector  662  Occ=0.000000D+00  E= 2.843985D+00
              MO Center=  1.0D-01, -3.6D-01, -5.3D-01, r^2= 6.8D+00
  Bfn.         Coefficient        Function           Bfn.         Coefficient        Function  
  ----     -------------------  ------------         ----     -------------------  ------------
    53     2.088773   0.000000   4 O  s                95     2.088741   0.000000   7 O  s         
   109    -1.565186   0.000000   8 O  s                81    -1.565068   0.000000   6 O  s         
    24    -1.344173   0.000000   2 Si pz               42    -1.331438   0.000000   3 Si pz        
     3    -1.024902   0.000000   1 O  s               233     0.693677   0.000000  15 Si py        
    52     0.678323   0.000000   4 O  s                94     0.678313   0.000000   7 O  s         

 Vector  663  Occ=0.000000D+00  E= 2.880972D+00
              MO Center=  0.0D+00,  0.0D+00,  0.0D+00, r^2= 0.0D+00
  Bfn.         Coefficient        Function           Bfn.         Coefficient        Function  
  ----     -------------------  ------------         ----     -------------------  ------------
   335     2.326359   0.000000   1 O  s               441    -2.063011   0.000000   8 O  s         
   413    -2.062930   0.000000   6 O  s               373     1.428889   0.000000   3 Si py        
   354    -1.277739   0.000000   2 Si px              355     0.872749   0.000000   2 Si py        
   399     0.800506   0.000000   5 O  s               455     0.800501   0.000000   9 O  s         
   334     0.750270   0.000000   1 O  s               548     0.670508   0.000000  14 Si pz        

 Vector  664  Occ=0.000000D+00  E= 2.880972D+00
              MO Center= -2.5D-02,  1.1D-01,  4.3D-01, r^2= 5.5D+00
  Bfn.         Coefficient        Function           Bfn.         Coefficient        Function  
  ----     -------------------  ------------         ----     -------------------  ------------
     3    -2.326359   0.000000   1 O  s               109     2.063011   0.000000   8 O  s         
    81     2.062930   0.000000   6 O  s                41    -1.428889   0.000000   3 Si py        
    22     1.277739   0.000000   2 Si px               23    -0.872749   0.000000   2 Si py        
    67    -0.800506   0.000000   5 O  s               123    -0.800501   0.000000   9 O  s         
     2    -0.750270   0.000000   1 O  s               216    -0.670508   0.000000  14 Si pz        


   alpha - beta orbital overlaps 
   ----------------------------- 


   alpha      1      2      3      4      5      6      7      8      9     10
    beta      1      2      2      4      5      6      5      5      6      4
 overlap   1.054  0.256  0.229  0.408  0.469  0.485  0.055  0.217  0.252  0.007


   alpha     11     12     13     14     15     16     17     18     19     20
    beta      6      5      6      5     15     16     17     80     19     20
 overlap   0.009  0.006  0.003  0.011  1.083  1.138  0.247  0.033  1.023  1.023


   alpha     21     22     23     24     25     26     27     28     29     30
    beta     21      4     23     24      4     69     56      5     70     83
 overlap   1.023  0.213  0.215  0.220  0.046  0.021  0.025  0.046  0.048  0.042


   alpha     31     32     33     34     35     36     37     38     39     40
    beta      6      4     33     34     35    108     37     38     39     40
 overlap   0.048  0.053  1.083  1.138  0.247  0.033  1.023  1.023  1.023  0.200


   alpha     41     42     43     44     45     46     47     48     49     50
    beta     41     42      4    125     98      4     98    111      6      5
 overlap   0.219  0.220  0.042  0.025  0.025  0.050  0.055  0.052  0.037  0.048


   alpha     51     52     53     54     55     56     57     58     59     60
    beta     51     52     52     54     55     56     54     55     56     52
 overlap   1.054  0.255  0.232  0.467  0.456  0.444  0.206  0.178  0.141  0.004


   alpha     61     62     63     64     65     66     67     68     69     70
    beta     52     56     54     54     65     66     66     68     69     70
 overlap   0.007  0.006  0.006  0.004  1.054  0.256  0.233  0.460  0.422  0.480


   alpha     71     72     73     74     75     76     77     78     79     80
    beta     68     69     70     69     70     70     70     68     79     80
 overlap   0.191  0.096  0.248  0.007  0.006  0.006  0.007  0.006  1.054  0.253


   alpha     81     82     83     84     85     86     87     88     89     90
    beta     80     82     83     84     82     83     82     82     80     80
 overlap   0.231  0.470  0.470  0.432  0.212  0.217  0.090  0.004  0.006  0.006


   alpha     91     92     93     94     95     96     97     98     99    100
    beta     80     83     93     94     94     96     97     98     96     97
 overlap   0.007  0.004  1.054  0.255  0.232  0.483  0.439  0.445  0.254  0.128


   alpha    101    102    103    104    105    106    107    108    109    110
    beta     98     96     94     98     96     97    107    108    108    110
 overlap   0.143  0.006  0.009  0.006  0.007  0.005  1.054  0.253  0.231  0.480


   alpha    111    112    113    114    115    116    117    118    119    120
    beta    111    112    110    111    111    111    108    108    112    110
 overlap   0.461  0.431  0.252  0.181  0.116  0.004  0.009  0.006  0.004  0.004


   alpha    121    122    123    124    125    126    127    128    129    130
    beta    121    122    122    124    125    126    124    125    126    122
 overlap   1.054  0.256  0.233  0.420  0.463  0.479  0.083  0.206  0.246  0.007


   alpha    131    132    133    134    135    136    137    138    139    140
    beta    126    126    124    125    135    136    137    137    139    140
 overlap   0.008  0.006  0.004  0.008  1.083  1.154  0.268  0.110  1.021  1.021


   alpha    141    142    143    144    145    146    147    148    149    150
    beta    141    142    143    144    142    144    144     56     54     56
 overlap   1.021  0.203  0.198  0.200  0.013  0.012  0.016  0.031  0.033  0.036


   alpha    151    152    153    154    155    156    157    158    159    160
    beta     55     54    153    154    155    155    157    158    159    160
 overlap   0.032  0.037  1.083  1.155  0.265  0.108  1.021  1.021  1.022  0.196


   alpha    161    162    163    164    165    166    167    168    169    170
    beta    161    162    161    160    162     68     70     70     70     68
 overlap   0.190  0.212  0.016  0.019  0.021  0.028  0.026  0.032  0.023  0.038


   alpha    171    172    173    174    175    176    177    178    179    180
    beta    171    172    173    173    175    176    177    178    179    180
 overlap   1.083  1.154  0.273  0.110  1.022  1.022  1.020  0.207  0.212  0.188


   alpha    181    182    183    184    185    186    187    188    189    190
    beta    178    179    178    178     83     82     84    179    189    190
 overlap   0.015  0.023  0.014  0.018  0.029  0.044  0.041  0.024  1.083  1.155


   alpha    191    192    193    194    195    196    197    198    199    200
    beta    191    191    193    194    195    124    197    198    124    197
 overlap   0.265  0.108  1.019  1.022  1.022  0.186  0.214  0.212  0.016  0.025


   alpha    201    202    203    204    205    206    207    208    209    210
    beta    198    125    197    126    124    196    207    208    209    209
 overlap   0.020  0.041  0.020  0.034  0.032  0.028  1.083  1.154  0.273  0.110


   alpha    211    212    213    214    215    216    217    218    219    220
    beta    211    212    213    214    215    216    214    215    215    110
 overlap   1.022  1.022  1.020  0.214  0.205  0.188  0.021  0.018  0.015  0.023


   alpha    221    222    223    224    225    226    227    228    229    230
    beta    112    111    110    214    225    226    227    227    229    230
 overlap   0.045  0.046  0.030  0.020  1.083  1.154  0.268  0.110  1.022  1.020


   alpha    231    232    233    234    235    236    237    238    239    240
    beta    231    232    233    234    232    234    233     96     97     98
 overlap   1.021  0.214  0.187  0.201  0.020  0.015  0.018  0.043  0.045  0.037


   alpha    241    242    243    244    245    246    247    248    249    250
    beta     96     98    143    143    142    137    137    142    142    137
 overlap   0.020  0.031  0.120  0.122  0.001  0.006  0.003  0.127  0.128  0.006


   alpha    251    252    253    254    255    256    257    258    259    260
    beta    137    144    144    144    137    143    137    259    259    173
 overlap   0.002  0.001  0.125  0.126  0.003  0.001  0.006  0.106  0.111  0.003


   alpha    261    262    263    264    265    266    267    268    269    270
    beta    173    173    179    179    178    173    179    178    178    173
 overlap   0.003  0.005  0.132  0.136  0.001  0.007  0.001  0.126  0.128  0.006


   alpha    271    272    273    274    275    276    277    278    279    280
    beta    173     82    161    274    155    155    155    162    162     70
 overlap   0.002  0.001  0.111  0.109  0.002  0.005  0.003  0.131  0.134  0.001


   alpha    281    282    283    284    285    286    287    288    289    290
    beta    162    155    160    160    155    155    155    289    289    227
 overlap   0.001  0.007  0.119  0.119  0.006  0.002  0.002  0.107  0.113  0.004


   alpha    291    292    293    294    295    296    297    298    299    300
    beta    227    227    232    232    227    232    234    234    234    227
 overlap   0.004  0.003  0.126  0.131  0.006  0.002  0.001  0.126  0.127  0.002


   alpha    301    302    303    304    305    306    307    308    309    310
    beta    227    227    304    304    214    209    209    309    309    209
 overlap   0.002  0.006  0.106  0.111  0.002  0.004  0.005  0.106  0.112  0.004


   alpha    311    312    313    314    315    316    317    318    319    320
    beta    209    215    214    214    209    214    110    197    197    197
 overlap   0.005  0.001  0.128  0.133  0.006  0.002  0.001  0.112  0.113  0.002


   alpha    321    322    323    324    325    326    327    328    329    330
    beta    191    191    198    198    126    197    191    329    329    191
 overlap   0.006  0.003  0.131  0.134  0.002  0.002  0.007  0.106  0.112  0.003


   alpha    331    332
    beta    191    191
 overlap   0.005  0.002

     --------------------------
     Expectation value of S2:  
     --------------------------
      <S2> =      0.0000 (Exact =     0.0000)


     Multipole analysis of the density
     ---------------------------------

     L   x y z        total         alpha         beta         nuclear
     -   - - -        -----         -----         ----         -------
     0   0 0 0     -0.000000    -93.000000    -93.000000    186.000000

     1   1 0 0      0.147468      0.073734      0.073734     -0.000000
     1   0 1 0     -0.466610     -0.233305     -0.233305     -0.000000
     1   0 0 1      0.394186      0.197093      0.197093     -0.000000

     2   2 0 0   -108.385593  -2040.515562  -2040.515562   3972.645531
     2   1 1 0      1.204177   -362.626128   -362.626128    726.456432
     2   1 0 1     -0.490147     49.147867     49.147867    -98.785882
     2   0 2 0   -111.920108   -956.101866   -956.101866   1800.283624
     2   0 1 1      1.443931    -95.023738    -95.023738    191.491406
     2   0 0 2   -111.304798   -901.920746   -901.920746   1692.536694


 Task  times  cpu:      111.9s     wall:      112.2s


                                NWChem Input Module
                                -------------------


 Summary of allocated global arrays
-----------------------------------
  No active global arrays



                         GA Statistics for process    0
                         ------------------------------

       create   destroy   get      put      acc     scatter   gather  read&inc
calls: 1444     1444     6.36e+05 5.15e+04 6.57e+05    0        0     6333     
number of processes/call 1.05e+00 1.37e+00 1.00e+00 0.00e+00 0.00e+00
bytes total:             1.49e+09 9.02e+08 7.34e+08 0.00e+00 0.00e+00 5.07e+04
bytes remote:            4.10e+08 4.79e+08 2.33e+07 0.00e+00 0.00e+00 0.00e+00
Max memory consumed for GA by this process: 67806560 bytes

MA_summarize_allocated_blocks: starting scan ...
MA_summarize_allocated_blocks: scan completed: 0 heap blocks, 0 stack blocks
MA usage statistics:

	allocation statistics:
					      heap	     stack
					      ----	     -----
	current number of blocks	         0	         0
	maximum number of blocks	        25	        56
	current total bytes		         0	         0
	maximum total bytes		  10040248	  89714088
	maximum total K-bytes		     10041	     89715
	maximum total M-bytes		        11	        90


                                     CITATION
                                     --------
                Please cite the following reference when publishing
                           results obtained with NWChem:

                 M. Valiev, E.J. Bylaska, N. Govind, K. Kowalski,
              T.P. Straatsma, H.J.J. van Dam, D. Wang, J. Nieplocha,
                        E. Apra, T.L. Windus, W.A. de Jong
                 "NWChem: a comprehensive and scalable open-source
                  solution for large scale molecular simulations"
                      Comput. Phys. Commun. 181, 1477 (2010)
                           doi:10.1016/j.cpc.2010.04.018

                                      AUTHORS
                                      -------
          E. Apra, E. J. Bylaska, W. A. de Jong, N. Govind, K. Kowalski,
       T. P. Straatsma, M. Valiev, H. J. J. van Dam, D. Wang, T. L. Windus,
        J. Hammond, J. Autschbach, K. Bhaskaran-Nair, J. Brabec, K. Lopata,
       S. A. Fischer, S. Krishnamoorthy, W. Ma, M. Klemm, O. Villa, Y. Chen,
    V. Anisimov, F. Aquino, S. Hirata, M. T. Hackler, V. Konjkov, T. Risthaus,
       M. Malagoli, A. Marenich, A. Otero-de-la-Roza, J. Mullin, P. Nichols,
      R. Peverati, J. Pittner, Y. Zhao, P.-D. Fan, A. Fonari, M. Williamson,
      R. J. Harrison, J. R. Rehr, M. Dupuis, D. Silverstein, D. M. A. Smith,
            J. Nieplocha, V. Tipparaju, M. Krishnan, B. E. Van Kuiken,
        A. Vazquez-Mayagoitia, L. Jensen, M. Swart, Q. Wu, T. Van Voorhis,
     A. A. Auer, M. Nooijen, L. D. Crosby, E. Brown, G. Cisneros, G. I. Fann,
   H. Fruchtl, J. Garza, K. Hirao, R. A. Kendall, J. A. Nichols, K. Tsemekhman,
    K. Wolinski, J. Anchell, D. E. Bernholdt, P. Borowski, T. Clark, D. Clerc,
   H. Dachsel, M. J. O. Deegan, K. Dyall, D. Elwood, E. Glendening, M. Gutowski,
   A. C. Hess, J. Jaffe, B. G. Johnson, J. Ju, R. Kobayashi, R. Kutteh, Z. Lin,
   R. Littlefield, X. Long, B. Meng, T. Nakajima, S. Niu, L. Pollack, M. Rosing,
   K. Glaesemann, G. Sandrone, M. Stave, H. Taylor, G. Thomas, J. H. van Lenthe,
                               A. T. Wong, Z. Zhang.

 Total times  cpu:      112.0s     wall:      112.2s
