 argument  1 = sogga11_h2o.nw



============================== echo of input deck ==============================
echo
start sogga11_h2o

title "sogga11_h2o"

geometry units angstroms
 O     0.000000     0.000000     0.000000
 H     0.000000     0.000000     0.956914
 H     0.926363     0.000000    -0.239868
end
basis
 H library 6-31+G*
 O library 6-31+G*
end
dft
 iterations 50
 print intermediate energy info
 xc sogga11
 decomp
 grid lebedev 99 14
 direct
end
task dft
================================================================================


                                         
                                         


              Northwest Computational Chemistry Package (NWChem) 6.1
              ------------------------------------------------------


                    Environmental Molecular Sciences Laboratory
                       Pacific Northwest National Laboratory
                                Richland, WA 99352

                              Copyright (c) 1994-2010
                       Pacific Northwest National Laboratory
                            Battelle Memorial Institute

             NWChem is an open-source computational chemistry package
                        distributed under the terms of the
                      Educational Community License (ECL) 2.0
             A copy of the license is included with this distribution
                              in the LICENSE.TXT file

                                  ACKNOWLEDGMENT
                                  --------------

            This software and its documentation were developed at the
            EMSL at Pacific Northwest National Laboratory, a multiprogram
            national laboratory, operated for the U.S. Department of Energy
            by Battelle under Contract Number DE-AC05-76RL01830. Support
            for this work was provided by the Department of Energy Office
            of Biological and Environmental Research, Office of Basic
            Energy Sciences, and the Office of Advanced Scientific Computing.


           Job information
           ---------------

    hostname      = orion
    program       = ../../../bin/LINUX64/nwchem
    date          = Thu Feb  2 10:36:16 2012

    compiled      = Thu_Feb_02_10:21:16_2012
    source        = /home/niri/nwchem/nwchem-trunk
    nwchem branch = Development
    input         = sogga11_h2o.nw
    prefix        = sogga11_h2o.
    data base     = ./sogga11_h2o.db
    status        = startup
    nproc         =        4
    time left     =     -1s



           Memory information
           ------------------

    heap     =   13107201 doubles =    100.0 Mbytes
    stack    =   13107201 doubles =    100.0 Mbytes
    global   =   26214400 doubles =    200.0 Mbytes (distinct from heap & stack)
    total    =   52428802 doubles =    400.0 Mbytes
    verify   = yes
    hardfail = no 


           Directory information
           ---------------------

  0 permanent = .
  0 scratch   = .




                                NWChem Input Module
                                -------------------


                                    sogga11_h2o
                                    -----------

 Scaling coordinates for geometry "geometry" by  1.889725989
 (inverse scale =  0.529177249)

 C2V symmetry detected

          ------
          auto-z
          ------


                             Geometry "geometry" -> ""
                             -------------------------

 Output coordinates in angstroms (scale by  1.889725989 to convert to a.u.)

  No.       Tag          Charge          X              Y              Z
 ---- ---------------- ---------- -------------- -------------- --------------
    1 O                    8.0000     0.00000000     0.00000000     0.11714535
    2 H                    1.0000     0.75670925     0.00000000    -0.46858141
    3 H                    1.0000    -0.75670925     0.00000000    -0.46858141

      Atomic Mass 
      ----------- 

      O                 15.994910
      H                  1.007825


 Effective nuclear repulsion energy (a.u.)       9.1977189738

            Nuclear Dipole moment (a.u.) 
            ----------------------------
        X                 Y               Z
 ---------------- ---------------- ----------------
     0.0000000000     0.0000000000     0.0000000000

      Symmetry information
      --------------------

 Group name             C2v       
 Group number             16
 Group order               4
 No. of unique centers     2

      Symmetry unique atoms

     1    2



                                Z-matrix (autoz)
                                -------- 

 Units are Angstrom for bonds and degrees for angles

      Type          Name      I     J     K     L     M      Value
      ----------- --------  ----- ----- ----- ----- ----- ----------
    1 Stretch                  1     2                       0.95691
    2 Stretch                  1     3                       0.95691
    3 Bend                     2     1     3               104.51706


            XYZ format geometry
            -------------------
     3
 geometry
 O                     0.00000000     0.00000000     0.11714535
 H                     0.75670925     0.00000000    -0.46858141
 H                    -0.75670925     0.00000000    -0.46858141

 ==============================================================================
                                internuclear distances
 ------------------------------------------------------------------------------
       center one      |      center two      | atomic units |  angstroms
 ------------------------------------------------------------------------------
    2 H                |   1 O                |     1.80831  |     0.95691
    3 H                |   1 O                |     1.80831  |     0.95691
 ------------------------------------------------------------------------------
                         number of included internuclear distances:          2
 ==============================================================================



 ==============================================================================
                                 internuclear angles
 ------------------------------------------------------------------------------
        center 1       |       center 2       |       center 3       |  degrees
 ------------------------------------------------------------------------------
    2 H                |   1 O                |   3 H                |   104.52
 ------------------------------------------------------------------------------
                            number of included internuclear angles:          1
 ==============================================================================



  library name resolved from: environment
  library file name is: </home/niri/nwchem/nwchem-trunk/src/basis/libraries/>
  
                      Basis "ao basis" -> "" (cartesian)
                      -----
  H (Hydrogen)
  ------------
            Exponent  Coefficients 
       -------------- ---------------------------------------------------------
  1 S  1.87311370E+01  0.033495
  1 S  2.82539370E+00  0.234727
  1 S  6.40121700E-01  0.813757

  2 S  1.61277800E-01  1.000000

  O (Oxygen)
  ----------
            Exponent  Coefficients 
       -------------- ---------------------------------------------------------
  1 S  5.48467170E+03  0.001831
  1 S  8.25234950E+02  0.013950
  1 S  1.88046960E+02  0.068445
  1 S  5.29645000E+01  0.232714
  1 S  1.68975700E+01  0.470193
  1 S  5.79963530E+00  0.358521

  2 S  1.55396160E+01 -0.110778
  2 S  3.59993360E+00 -0.148026
  2 S  1.01376180E+00  1.130767

  3 P  1.55396160E+01  0.070874
  3 P  3.59993360E+00  0.339753
  3 P  1.01376180E+00  0.727159

  4 S  2.70005800E-01  1.000000

  5 P  2.70005800E-01  1.000000

  6 S  8.45000000E-02  1.000000

  7 P  8.45000000E-02  1.000000

  8 D  8.00000000E-01  1.000000



 Summary of "ao basis" -> "" (cartesian)
 ------------------------------------------------------------------------------
       Tag                 Description            Shells   Functions and Types
 ---------------- ------------------------------  ------  ---------------------
 H                          6-31+G*                  2        2   2s
 O                          6-31+G*                  8       19   4s3p1d



                                 NWChem DFT Module
                                 -----------------


                                    sogga11_h2o


  Caching 1-el integrals 

            General Information
            -------------------
          SCF calculation type: DFT
          Wavefunction type:  closed shell.
          No. of atoms     :     3
          No. of electrons :    10
           Alpha electrons :     5
            Beta electrons :     5
          Charge           :     0
          Spin multiplicity:     1
          Use of symmetry is: on ; symmetry adaption is: on 
          Maximum number of iterations:  50
          This is a Direct SCF calculation.
          AO basis - number of functions:    23
                     number of shells:    12
          Convergence on energy requested: 1.00D-06
          Convergence on density requested: 1.00D-05
          Convergence on gradient requested: 5.00D-04

              XC Information
              --------------
                      SOGGA11 Method XC Functional
                       SOGGA11 gradient correction  1.000          
                     SOGGA11 Correlation Potential  1.000          

             Grid Information
             ----------------
          Grid used for XC integration:  lebedev   
          Radial quadrature: Mura-Knowles        
          Angular quadrature: Lebedev. 
          Tag              B.-S. Rad. Rad. Pts. Rad. Cut. Ang. Pts.
          ---              ---------- --------- --------- ---------
          O                   0.60       99           5.0       590
          H                   0.35       99           6.0       590
          Grid pruning is: on 
          Number of quadrature shells:   198
          Spatial weights used:  Erf1

          Convergence Information
          -----------------------
          Convergence aids based upon iterative change in 
          total energy or number of iterations. 
          Levelshifting, if invoked, occurs when the 
          HOMO/LUMO gap drops below (HL_TOL): 1.00D-02
          DIIS, if invoked, will attempt to extrapolate 
          using up to (NFOCK): 10 stored Fock matrices.

                    Damping( 0%)  Levelshifting(0.5)       DIIS
                  --------------- ------------------- ---------------
          dE  on:    start            ASAP                start   
          dE off:    2 iters         50 iters            50 iters 


      Screening Tolerance Information
      -------------------------------
          Density screening/tol_rho: 1.00D-10
          AO Gaussian exp screening on grid/accAOfunc:  14
          CD Gaussian exp screening on grid/accCDfunc:  20
          XC Gaussian exp screening on grid/accXCfunc:  20
          Schwarz screening/accCoul: 1.00D-08


      Superposition of Atomic Density Guess
      -------------------------------------

 Sum of atomic energies:         -75.75320674

      Non-variational initial energy
      ------------------------------

 Total energy =     -75.922816
 1-e energy   =    -121.661700
 2-e energy   =      36.541164
 HOMO         =      -0.479041
 LUMO         =       0.081060


      Symmetry analysis of molecular orbitals - initial
      -------------------------------------------------

  Numbering of irreducible representations: 

     1 a1          2 a2          3 b1          4 b2      

  Orbital symmetries:

     1 a1          2 a1          3 b1          4 a1          5 b2      
     6 a1          7 b1          8 a1          9 b2         10 b1      
    11 a1         12 b1         13 a1         14 b1         15 b2      

   Time after variat. SCF:      0.1
   Time prior to 1st pass:      0.1

 Grid_pts file          = ./sogga11_h2o.gridpts.0
 Record size in doubles =  12289        No. of grid_pts per rec  =   3070
 Max. records in memory =     12        Max. recs in file   =     69691


           Memory utilization after 1st SCF pass: 
           Heap Space remaining (MW):       12.96            12958078
          Stack Space remaining (MW):       13.11            13106962

   convergence    iter        energy       DeltaE   RMS-Dens  Diis-err    time
 ---------------- ----- ----------------- --------- --------- ---------  ------
 d= 0,ls=0.0,diis     1    -76.3737740720 -8.56D+01  3.19D-02  4.45D-01     0.2
 d= 0,ls=0.0,diis     2    -76.3580191075  1.58D-02  1.74D-02  5.79D-01     0.2
 d= 0,ls=0.0,diis     3    -76.4048360528 -4.68D-02  4.54D-03  5.96D-02     0.3
 d= 0,ls=0.0,diis     4    -76.4101422011 -5.31D-03  8.79D-04  4.00D-04     0.3
 d= 0,ls=0.0,diis     5    -76.4101897452 -4.75D-05  3.24D-04  4.69D-06     0.3
 d= 0,ls=0.0,diis     6    -76.4101910837 -1.34D-06  5.18D-05  8.57D-07     0.4
 d= 0,ls=0.0,diis     7    -76.4101911946 -1.11D-07  1.42D-05  8.89D-08     0.4
 d= 0,ls=0.0,diis     8    -76.4101912042 -9.64D-09  3.15D-06  2.52D-09     0.5


         Total DFT energy =      -76.410191204243
      One electron energy =     -123.150199152664
           Coulomb energy =       46.878990654671
          Exchange energy =       -8.487188902101
       Correlation energy =       -0.849512777949
 Nuclear repulsion energy =        9.197718973800

 Numeric. integr. density =       10.000000293058

     Total iterative time =      0.4s



                  Occupations of the irreducible representations
                  ----------------------------------------------

                     irrep           alpha         beta
                     --------     --------     --------
                     a1                3.0          3.0
                     a2                0.0          0.0
                     b1                1.0          1.0
                     b2                1.0          1.0


                       DFT Final Molecular Orbital Analysis
                       ------------------------------------

 Vector    1  Occ=2.000000D+00  E=-1.877539D+01  Symmetry=a1
              MO Center=  2.2D-18, -2.1D-19,  1.2D-01, r^2= 1.5D-02
   Bfn.  Coefficient  Atom+Function         Bfn.  Coefficient  Atom+Function  
  ----- ------------  ---------------      ----- ------------  ---------------
     1      0.991452  1 O  s          

 Vector    2  Occ=2.000000D+00  E=-9.157525D-01  Symmetry=a1
              MO Center=  8.9D-17, -8.8D-18, -1.0D-01, r^2= 5.0D-01
   Bfn.  Coefficient  Atom+Function         Bfn.  Coefficient  Atom+Function  
  ----- ------------  ---------------      ----- ------------  ---------------
     2      0.469084  1 O  s                  6      0.395790  1 O  s          
     1     -0.205183  1 O  s          

 Vector    3  Occ=2.000000D+00  E=-4.781479D-01  Symmetry=b1
              MO Center= -4.2D-17, -3.0D-20, -1.0D-01, r^2= 7.6D-01
   Bfn.  Coefficient  Atom+Function         Bfn.  Coefficient  Atom+Function  
  ----- ------------  ---------------      ----- ------------  ---------------
     3      0.533085  1 O  px                 7      0.256528  1 O  px         
    20      0.242584  2 H  s                 22     -0.242584  3 H  s          

 Vector    4  Occ=2.000000D+00  E=-3.231033D-01  Symmetry=a1
              MO Center=  8.7D-18, -9.2D-17,  2.2D-01, r^2= 7.0D-01
   Bfn.  Coefficient  Atom+Function         Bfn.  Coefficient  Atom+Function  
  ----- ------------  ---------------      ----- ------------  ---------------
     5      0.567514  1 O  pz                 6      0.327114  1 O  s          
     9      0.324621  1 O  pz                 2      0.199570  1 O  s          

 Vector    5  Occ=2.000000D+00  E=-2.446085D-01  Symmetry=b2
              MO Center=  9.7D-18, -1.6D-17,  9.6D-02, r^2= 6.7D-01
   Bfn.  Coefficient  Atom+Function         Bfn.  Coefficient  Atom+Function  
  ----- ------------  ---------------      ----- ------------  ---------------
     4      0.655031  1 O  py                 8      0.433469  1 O  py         

 Vector    6  Occ=0.000000D+00  E= 5.462468D-02  Symmetry=a1
              MO Center=  1.6D-15,  2.7D-17, -5.5D-01, r^2= 2.6D+00
   Bfn.  Coefficient  Atom+Function         Bfn.  Coefficient  Atom+Function  
  ----- ------------  ---------------      ----- ------------  ---------------
     6      1.159926  1 O  s                 21     -0.691962  2 H  s          
    23     -0.691962  3 H  s                 10     -0.415298  1 O  s          
     9     -0.344843  1 O  pz                 5     -0.284059  1 O  pz         
     2      0.157756  1 O  s          

 Vector    7  Occ=0.000000D+00  E= 1.569729D-01  Symmetry=b1
              MO Center= -1.4D-15,  3.4D-17, -5.4D-01, r^2= 2.2D+00
   Bfn.  Coefficient  Atom+Function         Bfn.  Coefficient  Atom+Function  
  ----- ------------  ---------------      ----- ------------  ---------------
    21      1.300780  2 H  s                 23     -1.300780  3 H  s          
     7     -0.688474  1 O  px                 3     -0.474595  1 O  px         
    20      0.154520  2 H  s                 22     -0.154520  3 H  s          

 Vector    8  Occ=0.000000D+00  E= 2.490397D-01  Symmetry=b1
              MO Center=  3.7D-14,  1.0D-17,  6.7D-01, r^2= 4.8D+00
   Bfn.  Coefficient  Atom+Function         Bfn.  Coefficient  Atom+Function  
  ----- ------------  ---------------      ----- ------------  ---------------
    11      1.753595  1 O  px                21     -1.349559  2 H  s          
    23      1.349559  3 H  s                  7      0.203814  1 O  px         

 Vector    9  Occ=0.000000D+00  E= 2.499069D-01  Symmetry=a1
              MO Center= -3.5D-14,  1.0D-18,  9.3D-01, r^2= 3.8D+00
   Bfn.  Coefficient  Atom+Function         Bfn.  Coefficient  Atom+Function  
  ----- ------------  ---------------      ----- ------------  ---------------
    13      1.068871  1 O  pz                10      0.576100  1 O  s          
     6     -0.437562  1 O  s                  9     -0.291093  1 O  pz         
     5     -0.283716  1 O  pz         

 Vector   10  Occ=0.000000D+00  E= 2.539282D-01  Symmetry=b2
              MO Center= -6.6D-19, -1.4D-19,  1.2D-01, r^2= 4.5D+00
   Bfn.  Coefficient  Atom+Function         Bfn.  Coefficient  Atom+Function  
  ----- ------------  ---------------      ----- ------------  ---------------
    12      1.140147  1 O  py                 4     -0.338295  1 O  py         
     8     -0.332322  1 O  py         

 Vector   11  Occ=0.000000D+00  E= 2.976171D-01  Symmetry=a1
              MO Center= -4.3D-15,  1.1D-17, -6.9D-01, r^2= 4.1D+00
   Bfn.  Coefficient  Atom+Function         Bfn.  Coefficient  Atom+Function  
  ----- ------------  ---------------      ----- ------------  ---------------
    10      3.405005  1 O  s                 21     -2.351854  2 H  s          
    23     -2.351854  3 H  s                 13     -1.378122  1 O  pz         
     6      0.843328  1 O  s                  9     -0.526061  1 O  pz         
    20     -0.190590  2 H  s                 22     -0.190590  3 H  s          

 Vector   12  Occ=0.000000D+00  E= 9.094666D-01  Symmetry=b1
              MO Center= -4.6D-15, -2.0D-17, -3.5D-01, r^2= 2.0D+00
   Bfn.  Coefficient  Atom+Function         Bfn.  Coefficient  Atom+Function  
  ----- ------------  ---------------      ----- ------------  ---------------
    21     -1.844549  2 H  s                 23      1.844549  3 H  s          
    11      0.884403  1 O  px                20      0.783679  2 H  s          
    22     -0.783679  3 H  s                  3     -0.541860  1 O  px         
    16     -0.401012  1 O  dxz                7      0.370795  1 O  px         

 Vector   13  Occ=0.000000D+00  E= 1.005501D+00  Symmetry=a1
              MO Center=  2.9D-15, -6.7D-17, -4.5D-01, r^2= 1.9D+00
   Bfn.  Coefficient  Atom+Function         Bfn.  Coefficient  Atom+Function  
  ----- ------------  ---------------      ----- ------------  ---------------
    21      2.185524  2 H  s                 23      2.185524  3 H  s          
    10     -1.966168  1 O  s                  6     -1.765874  1 O  s          
     9      0.802744  1 O  pz                 2      0.745134  1 O  s          
    20     -0.701610  2 H  s                 22     -0.701610  3 H  s          
    13      0.658726  1 O  pz                 5     -0.623007  1 O  pz         

 Vector   14  Occ=0.000000D+00  E= 1.126411D+00  Symmetry=b1
              MO Center= -4.0D-16, -4.3D-17,  2.9D-01, r^2= 2.0D+00
   Bfn.  Coefficient  Atom+Function         Bfn.  Coefficient  Atom+Function  
  ----- ------------  ---------------      ----- ------------  ---------------
     7      1.683535  1 O  px                11     -0.814187  1 O  px         
     3     -0.808134  1 O  px                20     -0.361818  2 H  s          
    22      0.361818  3 H  s                 16      0.282333  1 O  dxz        

 Vector   15  Occ=0.000000D+00  E= 1.150986D+00  Symmetry=b2
              MO Center=  8.3D-17, -3.7D-15,  1.0D-01, r^2= 2.0D+00
   Bfn.  Coefficient  Atom+Function         Bfn.  Coefficient  Atom+Function  
  ----- ------------  ---------------      ----- ------------  ---------------
     8      1.490966  1 O  py                 4     -0.943543  1 O  py         
    12     -0.797633  1 O  py         


 center of mass
 --------------
 x =   0.00000000 y =   0.00000000 z =   0.09749815

 moments of inertia (a.u.)
 ------------------
           2.193095372038           0.000000000000           0.000000000000
           0.000000000000           6.314743204129           0.000000000000
           0.000000000000           0.000000000000           4.121647832091

     Multipole analysis of the density
     ---------------------------------

     L   x y z        total         alpha         beta         nuclear
     -   - - -        -----         -----         ----         -------
     0   0 0 0      0.000000     -5.000000     -5.000000     10.000000

     1   1 0 0      0.000000      0.000000      0.000000      0.000000
     1   0 1 0      0.000000      0.000000      0.000000      0.000000
     1   0 0 1     -0.858827     -0.429414     -0.429414      0.000000

     2   2 0 0     -3.192036     -3.640841     -3.640841      4.089646
     2   1 1 0      0.000000      0.000000      0.000000      0.000000
     2   1 0 1      0.000000      0.000000      0.000000      0.000000
     2   0 2 0     -5.689439     -2.844719     -2.844719      0.000000
     2   0 1 1      0.000000      0.000000      0.000000      0.000000
     2   0 0 2     -4.673482     -3.316858     -3.316858      1.960233


 Task  times  cpu:        0.5s     wall:        1.2s


                                NWChem Input Module
                                -------------------


 Summary of allocated global arrays
-----------------------------------
  No active global arrays



                         GA Statistics for process    0
                         ------------------------------

       create   destroy   get      put      acc     scatter   gather  read&inc
calls:  190      190     2039      586      862        0        0        0     
number of processes/call 1.53e+00 1.27e+00 1.38e+00 0.00e+00 0.00e+00
bytes total:             1.86e+06 5.22e+05 9.29e+05 0.00e+00 0.00e+00 0.00e+00
bytes remote:            6.16e+05 1.08e+05 3.31e+05 0.00e+00 0.00e+00 0.00e+00
Max memory consumed for GA by this process: 109768 bytes

MA_summarize_allocated_blocks: starting scan ...
MA_summarize_allocated_blocks: scan completed: 0 heap blocks, 0 stack blocks
MA usage statistics:

	allocation statistics:
					      heap	     stack
					      ----	     -----
	current number of blocks	         0	         0
	maximum number of blocks	        23	        51
	current total bytes		         0	         0
	maximum total bytes		   1192856	  22510520
	maximum total K-bytes		      1193	     22511
	maximum total M-bytes		         2	        23


                                     CITATION
                                     --------
                Please cite the following reference when publishing
                           results obtained with NWChem:

                 M. Valiev, E.J. Bylaska, N. Govind, K. Kowalski,
              T.P. Straatsma, H.J.J. van Dam, D. Wang, J. Nieplocha,
                        E. Apra, T.L. Windus, W.A. de Jong
                 "NWChem: a comprehensive and scalable open-source
                  solution for large scale molecular simulations"
                      Comput. Phys. Commun. 181, 1477 (2010)
                           doi:10.1016/j.cpc.2010.04.018

                              AUTHORS & CONTRIBUTORS
                              ----------------------
      E. J. Bylaska, W. A. de Jong, N. Govind, K. Kowalski, T. P. Straatsma,
     M. Valiev, H. J. J. van Dam, D. Wang, E. Apra, T. L. Windus, J. Hammond,
    J. Autschbach, F. Aquino, J. Mullin, P. Nichols, S. Hirata, M. T. Hackler,
   Y. Zhao, P.-D. Fan, R. J. Harrison, M. Dupuis, D. M. A. Smith, K. Glaesemann,
    J. Nieplocha, V. Tipparaju, M. Krishnan, A. Vazquez-Mayagoitia, L. Jensen,
      M. Swart, Q. Wu, T. Van Voorhis, A. A. Auer, M. Nooijen, L. D. Crosby,
        E. Brown, G. Cisneros, G. I. Fann, H. Fruchtl, J. Garza, K. Hirao,
        R. Kendall, J. A. Nichols, K. Tsemekhman, K. Wolinski, J. Anchell,
       D. Bernholdt, P. Borowski, T. Clark, D. Clerc, H. Dachsel, M. Deegan,
        K. Dyall, D. Elwood, E. Glendening, M. Gutowski, A. Hess, J. Jaffe,
        B. Johnson, J. Ju, R. Kobayashi, R. Kutteh, Z. Lin, R. Littlefield,
    X. Long, B. Meng, T. Nakajima, S. Niu, L. Pollack, M. Rosing, G. Sandrone,
       M. Stave, H. Taylor, G. Thomas, J. H. van Lenthe, A. Wong, Z. Zhang.

 Total times  cpu:        0.5s     wall:        2.5s
