 argument  1 = /home/edo/nwchem/nwchem-flaccid-fraction/QA/tests/dft_formaldehyde_mom/dft_formaldehyde_mom.nw
  NWChem w/ OpenMP: maximum threads =    1
                                         
                                         


             Northwest Computational Chemistry Package (NWChem) 7.2.1
             --------------------------------------------------------


                    Environmental Molecular Sciences Laboratory
                       Pacific Northwest National Laboratory
                                Richland, WA 99352

                              Copyright (c) 1994-2022
                       Pacific Northwest National Laboratory
                            Battelle Memorial Institute

             NWChem is an open-source computational chemistry package
                        distributed under the terms of the
                      Educational Community License (ECL) 2.0
             A copy of the license is included with this distribution
                              in the LICENSE.TXT file

                                  ACKNOWLEDGMENT
                                  --------------

            This software and its documentation were developed at the
            EMSL at Pacific Northwest National Laboratory, a multiprogram
            national laboratory, operated for the U.S. Department of Energy
            by Battelle under Contract Number DE-AC05-76RL01830. Support
            for this work was provided by the Department of Energy Office
            of Biological and Environmental Research, Office of Basic
            Energy Sciences, and the Office of Advanced Scientific Computing.


           Job information
           ---------------

    hostname        = mica
    program         = /home/edo/nwchem/nwchem-flaccid-fraction/bin/LINUX64/nwchem
    date            = Wed Feb 28 17:20:23 2024

    compiled        = Wed_Feb_28_17:13:28_2024
    source          = /home/edo/nwchem/nwchem-flaccid-fraction
    nwchem branch   = 7.2.1
    nwchem revision = v7.2.0-beta1-1016-g1539d432fc
    ga revision     = 5.8.0
    use scalapack   = T
    input           = /home/edo/nwchem/nwchem-flaccid-fraction/QA/tests/dft_formaldehyde_mom/dft_formaldehyde_mom.nw
    prefix          = dft_formaldehyde_mom.
    data base       = ./dft_formaldehyde_mom.db
    status          = startup
    nproc           =        5
    time left       =     -1s



           Memory information
           ------------------

    heap     =     26214396 doubles =      200.0 Mbytes
    stack    =     26214401 doubles =      200.0 Mbytes
    global   =     52428800 doubles =      400.0 Mbytes (distinct from heap & stack)
    total    =    104857597 doubles =      800.0 Mbytes
    verify   = yes
    hardfail = no 


           Directory information
           ---------------------

  0 permanent = .
  0 scratch   = .




                                NWChem Input Module
                                -------------------


                       formaldehyde n to pi-star excitation
                       ------------------------------------

 Scaling coordinates for geometry "geometry" by  1.889725989
 (inverse scale =  0.529177249)

 C2V symmetry detected

          ------
          auto-z
          ------
  Looking for out-of-plane bends
  no constraints, skipping    0.0000000000000000     
  no constraints, skipping    0.0000000000000000     


                             Geometry "geometry" -> ""
                             -------------------------

 Output coordinates in angstroms (scale by  1.889725989 to convert to a.u.)

  No.       Tag          Charge          X              Y              Z
 ---- ---------------- ---------- -------------- -------------- --------------
    1 C                    6.0000     0.00000000     0.00000000    -0.53179082
    2 O                    8.0000     0.00000000     0.00000000     0.67658824
    3 H                    1.0000     0.00000000     0.93467313    -1.11098050
    4 H                    1.0000     0.00000000    -0.93467313    -1.11098050

      Atomic Mass 
      ----------- 

      C                 12.000000
      O                 15.994910
      H                  1.007825


 Effective nuclear repulsion energy (a.u.)      31.2758098127

            Nuclear Dipole moment (a.u.) 
            ----------------------------
        X                 Y               Z
 ---------------- ---------------- ----------------
     0.0000000000     0.0000000000     0.0000000000

      Symmetry information
      --------------------

 Group name             C2v       
 Group number             16
 Group order               4
 No. of unique centers     3

      Symmetry unique atoms

     1    2    3



                                Z-matrix (autoz)
                                -------- 

 Units are Angstrom for bonds and degrees for angles

      Type          Name      I     J     K     L     M      Value
      ----------- --------  ----- ----- ----- ----- ----- ----------
    1 Stretch                  1     2                       1.20838
    2 Stretch                  1     3                       1.09958
    3 Stretch                  1     4                       1.09958
    4 Bend                     2     1     3               121.78529
    5 Bend                     2     1     4               121.78529
    6 Bend                     3     1     4               116.42942
    7 Torsion                  2     1     3     4         180.00000
    8 Torsion                  2     1     4     3         180.00000
    9 Torsion                  3     1     2     4         180.00000
   10 Torsion                  2     4     1     3         180.00000
   11 Torsion                  3     2     1     4         180.00000
   12 Torsion                  2     3     1     4         180.00000


            XYZ format geometry
            -------------------
     4
 geometry
 C                     0.00000000     0.00000000    -0.53179082
 O                     0.00000000     0.00000000     0.67658824
 H                     0.00000000     0.93467313    -1.11098050
 H                     0.00000000    -0.93467313    -1.11098050

 ==============================================================================
                                internuclear distances
 ------------------------------------------------------------------------------
       center one      |      center two      | atomic units |  angstroms
 ------------------------------------------------------------------------------
    2 O                |   1 C                |     2.28351  |     1.20838
    3 H                |   1 C                |     2.07790  |     1.09958
    4 H                |   1 C                |     2.07790  |     1.09958
 ------------------------------------------------------------------------------
                         number of included internuclear distances:          3
 ==============================================================================



 ==============================================================================
                                 internuclear angles
 ------------------------------------------------------------------------------
        center 1       |       center 2       |       center 3       |  degrees
 ------------------------------------------------------------------------------
    2 O                |   1 C                |   3 H                |   121.79
    2 O                |   1 C                |   4 H                |   121.79
    3 H                |   1 C                |   4 H                |   116.43
 ------------------------------------------------------------------------------
                            number of included internuclear angles:          3
 ==============================================================================





 Summary of "ao basis" -> "" (spherical)
 ------------------------------------------------------------------------------
       Tag                 Description            Shells   Functions and Types
 ---------------- ------------------------------  ------  ---------------------
 *                        aug-cc-pvtz                 on all atoms 


  xc_inp: hfexch multiplicative factor not found.

                                 NWChem DFT Module
                                 -----------------


                       formaldehyde n to pi-star excitation


                      Basis "ao basis" -> "ao basis" (spherical)
                      -----
  C (Carbon)
  ----------
            Exponent  Coefficients 
       -------------- ---------------------------------------------------------
  1 S  8.23600000E+03  0.000531
  1 S  1.23500000E+03  0.004108
  1 S  2.80800000E+02  0.021087
  1 S  7.92700000E+01  0.081853
  1 S  2.55900000E+01  0.234817
  1 S  8.99700000E+00  0.434401
  1 S  3.31900000E+00  0.346129
  1 S  3.64300000E-01 -0.008983

  2 S  8.23600000E+03 -0.000113
  2 S  1.23500000E+03 -0.000878
  2 S  2.80800000E+02 -0.004540
  2 S  7.92700000E+01 -0.018133
  2 S  2.55900000E+01 -0.055760
  2 S  8.99700000E+00 -0.126895
  2 S  3.31900000E+00 -0.170352
  2 S  3.64300000E-01  0.598684

  3 S  9.05900000E-01  1.000000

  4 S  1.28500000E-01  1.000000

  5 S  4.40200000E-02  1.000000

  6 P  1.87100000E+01  0.014031
  6 P  4.13300000E+00  0.086866
  6 P  1.20000000E+00  0.290216

  7 P  3.82700000E-01  1.000000

  8 P  1.20900000E-01  1.000000

  9 P  3.56900000E-02  1.000000

 10 D  1.09700000E+00  1.000000

 11 D  3.18000000E-01  1.000000

 12 D  1.00000000E-01  1.000000

 13 F  7.61000000E-01  1.000000

 14 F  2.68000000E-01  1.000000

  O (Oxygen)
  ----------
            Exponent  Coefficients 
       -------------- ---------------------------------------------------------
  1 S  1.53300000E+04  0.000508
  1 S  2.29900000E+03  0.003929
  1 S  5.22400000E+02  0.020243
  1 S  1.47300000E+02  0.079181
  1 S  4.75500000E+01  0.230687
  1 S  1.67600000E+01  0.433118
  1 S  6.20700000E+00  0.350260
  1 S  6.88200000E-01 -0.008154

  2 S  1.53300000E+04 -0.000115
  2 S  2.29900000E+03 -0.000895
  2 S  5.22400000E+02 -0.004636
  2 S  1.47300000E+02 -0.018724
  2 S  4.75500000E+01 -0.058463
  2 S  1.67600000E+01 -0.136463
  2 S  6.20700000E+00 -0.175740
  2 S  6.88200000E-01  0.603418

  3 S  1.75200000E+00  1.000000

  4 S  2.38400000E-01  1.000000

  5 S  7.37600000E-02  1.000000

  6 P  3.44600000E+01  0.015928
  6 P  7.74900000E+00  0.099740
  6 P  2.28000000E+00  0.310492

  7 P  7.15600000E-01  1.000000

  8 P  2.14000000E-01  1.000000

  9 P  5.97400000E-02  1.000000

 10 D  2.31400000E+00  1.000000

 11 D  6.45000000E-01  1.000000

 12 D  2.14000000E-01  1.000000

 13 F  1.42800000E+00  1.000000

 14 F  5.00000000E-01  1.000000

  H (Hydrogen)
  ------------
            Exponent  Coefficients 
       -------------- ---------------------------------------------------------
  1 S  3.38700000E+01  0.006068
  1 S  5.09500000E+00  0.045308
  1 S  1.15900000E+00  0.202822

  2 S  3.25800000E-01  1.000000

  3 S  1.02700000E-01  1.000000

  4 S  2.52600000E-02  1.000000

  5 P  1.40700000E+00  1.000000

  6 P  3.88000000E-01  1.000000

  7 P  1.02000000E-01  1.000000

  8 D  1.05700000E+00  1.000000

  9 D  2.47000000E-01  1.000000



 Summary of "ao basis" -> "ao basis" (spherical)
 ------------------------------------------------------------------------------
       Tag                 Description            Shells   Functions and Types
 ---------------- ------------------------------  ------  ---------------------
 C                        aug-cc-pvtz               14       46   5s4p3d2f
 O                        aug-cc-pvtz               14       46   5s4p3d2f
 H                        aug-cc-pvtz                9       23   4s3p2d




 Summary of "ao basis" -> "ao basis" (spherical)
 ------------------------------------------------------------------------------
       Tag                 Description            Shells   Functions and Types
 ---------------- ------------------------------  ------  ---------------------
 C                        aug-cc-pvtz               14       46   5s4p3d2f
 O                        aug-cc-pvtz               14       46   5s4p3d2f
 H                        aug-cc-pvtz                9       23   4s3p2d


      Symmetry analysis of basis
      --------------------------

        a1         54
        a2         17
        b1         29
        b2         38

  Caching 1-el integrals 

            General Information
            -------------------
          SCF calculation type: DFT
          Wavefunction type:  closed shell.
          No. of atoms     :     4
          No. of electrons :    16
           Alpha electrons :     8
            Beta electrons :     8
          Charge           :     0
          Spin multiplicity:     1
          Use of symmetry is: on ; symmetry adaption is: on 
          Maximum number of iterations:  50
          AO basis - number of functions:   138
                     number of shells:    46
          Convergence on energy requested:  1.00D-06
          Convergence on density requested:  1.00D-05
          Convergence on gradient requested:  5.00D-04

              XC Information
              --------------
                     Hartree-Fock (Exact) Exchange  1.000          

          Convergence Information
          -----------------------
          Convergence aids based upon iterative change in 
          total energy or number of iterations. 
          Levelshifting, if invoked, occurs when the 
          HOMO/LUMO gap drops below (HL_TOL):  1.00D-02
          DIIS, if invoked, will attempt to extrapolate 
          using up to (NFOCK): 10 stored Fock matrices.

                    Damping( 0%)  Levelshifting(0.5)       DIIS
                  --------------- ------------------- ---------------
          dE  on:    start            ASAP                start   
          dE off:    2 iters         50 iters            50 iters 


      Screening Tolerance Information
      -------------------------------
          Density screening/tol_rho:  1.00D-10
          AO Gaussian exp screening on grid/accAOfunc:  14
          CD Gaussian exp screening on grid/accCDfunc:  20
          XC Gaussian exp screening on grid/accXCfunc:  20
          Schwarz screening/accCoul:  1.00D-08


      Superposition of Atomic Density Guess
      -------------------------------------

 Sum of atomic energies:        -113.45156645

      Non-variational initial energy
      ------------------------------

 Total energy =    -114.126561
 1-e energy   =    -215.961619
 2-e energy   =      70.559247
 HOMO         =      -0.335729
 LUMO         =      -0.051982


      Symmetry analysis of molecular orbitals - initial
      -------------------------------------------------

  Numbering of irreducible representations: 

     1 a1          2 a2          3 b1          4 b2      

  Orbital symmetries:

     1 a1          2 a1          3 a1          4 a1          5 b2      
     6 a1          7 b1          8 b2          9 b1         10 a1      
    11 b2         12 a1         13 b1         14 a1         15 b2      
    16 a1         17 b1         18 b2      

   Time after variat. SCF:      0.6
   Time prior to 1st pass:      0.6

           Memory utilization after 1st SCF pass: 
           Heap Space remaining (MW):       26.21            26210476
          Stack Space remaining (MW):       26.21            26213564

   convergence    iter        energy       DeltaE   RMS-Dens  Diis-err    time
 ---------------- ----- ----------------- --------- --------- ---------  ------
 d= 0,ls=0.0,diis     1   -113.8412154898 -1.45D+02  3.14D-03  6.15D-01     1.3
 d= 0,ls=0.0,diis     2   -113.8740071087 -3.28D-02  1.41D-03  4.59D-01     2.0
 d= 0,ls=0.0,diis     3   -113.9126858419 -3.87D-02  3.68D-04  3.47D-03     2.8
 d= 0,ls=0.0,diis     4   -113.9134788533 -7.93D-04  1.35D-04  4.73D-04     3.5
 d= 0,ls=0.0,diis     5   -113.9136110874 -1.32D-04  7.30D-05  9.26D-05     4.2
  Resetting Diis
 d= 0,ls=0.0,diis     6   -113.9136506937 -3.96D-05  2.49D-05  1.39D-05     5.0
 d= 0,ls=0.0,diis     7   -113.9136545994 -3.91D-06  3.46D-06  2.72D-07     5.7
 d= 0,ls=0.0,diis     8   -113.9136546568 -5.74D-08  1.31D-06  5.55D-08     6.4


         Total DFT energy =     -113.913654656778
      One electron energy =     -217.325684544070
           Coulomb energy =       86.222307309806
    Exchange-Corr. energy =      -14.086087235177
 Nuclear repulsion energy =       31.275809812664

 Numeric. integr. density =        0.000000000000

     Total iterative time =      5.9s



                  Occupations of the irreducible representations
                  ----------------------------------------------

                     irrep           alpha         beta
                     --------     --------     --------
                     a1                5.0          5.0
                     a2                0.0          0.0
                     b1                1.0          1.0
                     b2                2.0          2.0


                       DFT Final Molecular Orbital Analysis
                       ------------------------------------

 Vector    1  Occ=2.000000D+00  E=-2.057889D+01  Symmetry=a1
              MO Center=  7.4D-27, -5.3D-18,  6.8D-01, r^2= 1.5D-02
   Bfn.  Coefficient  Atom+Function         Bfn.  Coefficient  Atom+Function  
  ----- ------------  ---------------      ----- ------------  ---------------
    47      0.975009  2 O  s                 49      0.043582  2 O  s          

 Vector    2  Occ=2.000000D+00  E=-1.134249D+01  Symmetry=a1
              MO Center=  1.4D-19, -6.1D-17, -5.3D-01, r^2= 2.7D-02
   Bfn.  Coefficient  Atom+Function         Bfn.  Coefficient  Atom+Function  
  ----- ------------  ---------------      ----- ------------  ---------------
     1      0.979057  1 C  s                  3      0.041524  1 C  s          

 Vector    3  Occ=2.000000D+00  E=-1.405141D+00  Symmetry=a1
              MO Center= -7.2D-33,  2.8D-18,  3.5D-01, r^2= 4.9D-01
   Bfn.  Coefficient  Atom+Function         Bfn.  Coefficient  Atom+Function  
  ----- ------------  ---------------      ----- ------------  ---------------
    48      0.468885  2 O  s                 50      0.254304  2 O  s          
     2      0.246951  1 C  s                  4      0.129174  1 C  s          
    49      0.121604  2 O  s                 57     -0.101472  2 O  pz         
     8      0.099828  1 C  pz                54     -0.075763  2 O  pz         
    11      0.071012  1 C  pz                 3      0.052215  1 C  s          

 Vector    4  Occ=2.000000D+00  E=-8.724556D-01  Symmetry=a1
              MO Center=  1.0D-32, -2.5D-17, -6.0D-01, r^2= 1.3D+00
   Bfn.  Coefficient  Atom+Function         Bfn.  Coefficient  Atom+Function  
  ----- ------------  ---------------      ----- ------------  ---------------
     2      0.400973  1 C  s                  4      0.311282  1 C  s          
    48     -0.220465  2 O  s                 50     -0.211281  2 O  s          
    11     -0.123034  1 C  pz                94      0.106554  3 H  s          
   117      0.106554  4 H  s                 93      0.105916  3 H  s          
   116      0.105916  4 H  s                  8     -0.097822  1 C  pz         

 Vector    5  Occ=2.000000D+00  E=-6.952931D-01  Symmetry=b2
              MO Center=  3.6D-17, -3.0D-16, -3.3D-01, r^2= 1.3D+00
   Bfn.  Coefficient  Atom+Function         Bfn.  Coefficient  Atom+Function  
  ----- ------------  ---------------      ----- ------------  ---------------
    10      0.299333  1 C  py                56      0.237912  2 O  py         
     7      0.221204  1 C  py                53      0.188624  2 O  py         
    59      0.162814  2 O  py                13      0.129196  1 C  py         
    94      0.114723  3 H  s                117     -0.114723  4 H  s          
    93      0.109190  3 H  s                116     -0.109190  4 H  s          

 Vector    6  Occ=2.000000D+00  E=-6.519388D-01  Symmetry=a1
              MO Center=  1.3D-15, -1.8D-16,  3.9D-01, r^2= 1.2D+00
   Bfn.  Coefficient  Atom+Function         Bfn.  Coefficient  Atom+Function  
  ----- ------------  ---------------      ----- ------------  ---------------
    57      0.352278  2 O  pz                54      0.287082  2 O  pz         
    50      0.235836  2 O  s                 11     -0.228628  1 C  pz         
     8     -0.205477  1 C  pz                60      0.200964  2 O  pz         
    48      0.176737  2 O  s                  4      0.088432  1 C  s          
    14     -0.084946  1 C  pz                94      0.079667  3 H  s          

 Vector    7  Occ=2.000000D+00  E=-5.361787D-01  Symmetry=b1
              MO Center= -3.1D-16, -2.9D-17,  2.8D-01, r^2= 9.7D-01
   Bfn.  Coefficient  Atom+Function         Bfn.  Coefficient  Atom+Function  
  ----- ------------  ---------------      ----- ------------  ---------------
    55      0.355028  2 O  px                52      0.273751  2 O  px         
    58      0.252542  2 O  px                 9      0.232961  1 C  px         
     6      0.175844  1 C  px                12      0.120816  1 C  px         
    26     -0.035931  1 C  d  1              72      0.030776  2 O  d  1       
    61      0.025282  2 O  px         

 Vector    8  Occ=2.000000D+00  E=-4.442415D-01  Symmetry=b2
              MO Center=  2.4D-17, -1.2D-16,  6.0D-02, r^2= 1.6D+00
   Bfn.  Coefficient  Atom+Function         Bfn.  Coefficient  Atom+Function  
  ----- ------------  ---------------      ----- ------------  ---------------
    56      0.387321  2 O  py                53      0.307438  2 O  py         
    59      0.308038  2 O  py                13     -0.238794  1 C  py         
    10     -0.151346  1 C  py                94     -0.141370  3 H  s          
   117      0.141370  4 H  s                 93     -0.105770  3 H  s          
   116      0.105770  4 H  s                  7     -0.104674  1 C  py         

 Vector    9  Occ=0.000000D+00  E= 2.620473D-02  Symmetry=a1
              MO Center=  1.2D-17,  2.9D-16, -2.2D+00, r^2= 1.6D+01
   Bfn.  Coefficient  Atom+Function         Bfn.  Coefficient  Atom+Function  
  ----- ------------  ---------------      ----- ------------  ---------------
     5      4.373241  1 C  s                  4      2.808319  1 C  s          
    96     -1.645757  3 H  s                119     -1.645757  4 H  s          
    95     -1.470097  3 H  s                118     -1.470097  4 H  s          
    51     -1.431132  2 O  s                 63      0.353151  2 O  pz         
   104      0.331616  3 H  py               127     -0.331616  4 H  py         

 Vector   10  Occ=0.000000D+00  E= 4.164415D-02  Symmetry=b2
              MO Center= -1.7D-29, -2.0D-15, -2.0D+00, r^2= 2.2D+01
   Bfn.  Coefficient  Atom+Function         Bfn.  Coefficient  Atom+Function  
  ----- ------------  ---------------      ----- ------------  ---------------
    96      5.240092  3 H  s                119     -5.240092  4 H  s          
    16     -2.556079  1 C  py                95      1.934045  3 H  s          
   118     -1.934045  4 H  s                 13     -1.498152  1 C  py         
    62      0.446544  2 O  py               105      0.384068  3 H  pz         
   128     -0.384068  4 H  pz               104     -0.358860  3 H  py         

 Vector   11  Occ=0.000000D+00  E= 6.225166D-02  Symmetry=b1
              MO Center=  5.7D-17, -2.8D-17, -1.0D+00, r^2= 1.0D+01
   Bfn.  Coefficient  Atom+Function         Bfn.  Coefficient  Atom+Function  
  ----- ------------  ---------------      ----- ------------  ---------------
    15      1.422888  1 C  px                61     -0.705885  2 O  px         
    12      0.314958  1 C  px                55     -0.143598  2 O  px         
   103     -0.138497  3 H  px               126     -0.138497  4 H  px         
     9      0.122262  1 C  px                58     -0.114323  2 O  px         
    52     -0.109277  2 O  px                 6      0.068531  1 C  px         

 Vector   12  Occ=0.000000D+00  E= 7.647687D-02  Symmetry=a1
              MO Center= -8.9D-17, -9.1D-17,  3.4D-01, r^2= 1.5D+01
   Bfn.  Coefficient  Atom+Function         Bfn.  Coefficient  Atom+Function  
  ----- ------------  ---------------      ----- ------------  ---------------
    51      3.857504  2 O  s                 17     -2.086987  1 C  pz         
    14     -1.707711  1 C  pz                95     -1.602532  3 H  s          
   118     -1.602532  4 H  s                 50      0.843245  2 O  s          
     5     -0.753473  1 C  s                 30     -0.653507  1 C  d  0       
    96     -0.425482  3 H  s                119     -0.425482  4 H  s          

 Vector   13  Occ=0.000000D+00  E= 1.288367D-01  Symmetry=b1
              MO Center=  2.3D-15,  7.9D-15, -1.8D-01, r^2= 6.4D+00
   Bfn.  Coefficient  Atom+Function         Bfn.  Coefficient  Atom+Function  
  ----- ------------  ---------------      ----- ------------  ---------------
    15      0.931853  1 C  px               103     -0.549343  3 H  px         
   126     -0.549343  4 H  px                58      0.342587  2 O  px         
     9     -0.268726  1 C  px                 6     -0.203560  1 C  px         
    55      0.182800  2 O  px                61      0.144881  2 O  px         
    52      0.139368  2 O  px                31      0.125772  1 C  d  1       

 Vector   14  Occ=0.000000D+00  E= 1.328924D-01  Symmetry=a1
              MO Center= -2.4D-15, -2.2D-14, -1.8D+00, r^2= 1.5D+01
   Bfn.  Coefficient  Atom+Function         Bfn.  Coefficient  Atom+Function  
  ----- ------------  ---------------      ----- ------------  ---------------
     5     11.245663  1 C  s                  4      7.113401  1 C  s          
    51     -4.618099  2 O  s                 95     -4.058414  3 H  s          
   118     -4.058414  4 H  s                 96     -2.368307  3 H  s          
   119     -2.368307  4 H  s                 63      1.222367  2 O  pz         
    50     -0.940464  2 O  s                104      0.827205  3 H  py         

 Vector   15  Occ=0.000000D+00  E= 1.334774D-01  Symmetry=b2
              MO Center=  1.3D-27, -1.9D-14, -8.0D-01, r^2= 1.8D+01
   Bfn.  Coefficient  Atom+Function         Bfn.  Coefficient  Atom+Function  
  ----- ------------  ---------------      ----- ------------  ---------------
    96      6.409324  3 H  s                119     -6.409324  4 H  s          
    95      5.766774  3 H  s                118     -5.766774  4 H  s          
    16     -5.455282  1 C  py                13     -3.848789  1 C  py         
    29      1.008147  1 C  d -1             104     -0.817885  3 H  py         
   127     -0.817885  4 H  py               105      0.586826  3 H  pz         

 Vector   16  Occ=0.000000D+00  E= 1.744207D-01  Symmetry=a1
              MO Center=  5.2D-16,  8.6D-17,  9.2D-01, r^2= 1.0D+01
   Bfn.  Coefficient  Atom+Function         Bfn.  Coefficient  Atom+Function  
  ----- ------------  ---------------      ----- ------------  ---------------
    51      3.569596  2 O  s                 63     -2.831191  2 O  pz         
    14     -2.550599  1 C  pz                95     -2.247975  3 H  s          
   118     -2.247975  4 H  s                  4      1.895598  1 C  s          
     5     -1.812476  1 C  s                104      1.473761  3 H  py         
   127     -1.473761  4 H  py                30      0.759892  1 C  d  0       

 Vector   17  Occ=0.000000D+00  E= 1.981115D-01  Symmetry=b2
              MO Center=  5.2D-29, -8.1D-15, -1.7D-01, r^2= 1.2D+01
   Bfn.  Coefficient  Atom+Function         Bfn.  Coefficient  Atom+Function  
  ----- ------------  ---------------      ----- ------------  ---------------
    96     -3.301689  3 H  s                119      3.301689  4 H  s          
    16      3.202972  1 C  py                62     -3.184469  2 O  py         
    29      2.432599  1 C  d -1              95      1.502612  3 H  s          
   118     -1.502612  4 H  s                105     -1.270615  3 H  pz         
   128      1.270615  4 H  pz                59     -0.826050  2 O  py         

 Vector   18  Occ=0.000000D+00  E= 2.117913D-01  Symmetry=b1
              MO Center=  7.2D-18,  6.4D-17,  8.9D-01, r^2= 9.9D+00
   Bfn.  Coefficient  Atom+Function         Bfn.  Coefficient  Atom+Function  
  ----- ------------  ---------------      ----- ------------  ---------------
    61      2.925610  2 O  px                15     -1.492381  1 C  px         
    31      1.044185  1 C  d  1              12     -0.578255  1 C  px         
    77      0.424915  2 O  d  1             103     -0.315048  3 H  px         
   126     -0.315048  4 H  px                58      0.279430  2 O  px         
    26      0.233329  1 C  d  1              55     -0.130963  2 O  px         

 Vector   19  Occ=0.000000D+00  E= 2.173433D-01  Symmetry=a1
              MO Center= -1.3D-15,  1.3D-15, -7.0D-01, r^2= 7.2D+00
   Bfn.  Coefficient  Atom+Function         Bfn.  Coefficient  Atom+Function  
  ----- ------------  ---------------      ----- ------------  ---------------
     4      4.969297  1 C  s                 51     -2.467439  2 O  s          
   104      1.248873  3 H  py               127     -1.248873  4 H  py         
    50     -1.214242  2 O  s                 63      1.106794  2 O  pz         
    30      1.001522  1 C  d  0              94     -0.652130  3 H  s          
   117     -0.652130  4 H  s                 14      0.505826  1 C  pz         

 Vector   20  Occ=0.000000D+00  E= 2.540616D-01  Symmetry=a2
              MO Center= -1.0D-16, -2.3D-15, -1.3D+00, r^2= 5.9D+00
   Bfn.  Coefficient  Atom+Function         Bfn.  Coefficient  Atom+Function  
  ----- ------------  ---------------      ----- ------------  ---------------
   103      1.753726  3 H  px               126     -1.753726  4 H  px         
    28     -0.555372  1 C  d -2              23     -0.277595  1 C  d -2       
   111     -0.221056  3 H  d -2             134     -0.221056  4 H  d -2       
    41      0.144642  1 C  f -2             100      0.140543  3 H  px         
   123     -0.140543  4 H  px               114     -0.116640  3 H  d  1       

 Vector   21  Occ=0.000000D+00  E= 2.560570D-01  Symmetry=a1
              MO Center=  1.5D-16, -1.6D-13, -2.8D-01, r^2= 1.1D+01
   Bfn.  Coefficient  Atom+Function         Bfn.  Coefficient  Atom+Function  
  ----- ------------  ---------------      ----- ------------  ---------------
    51      4.808788  2 O  s                 14     -3.750641  1 C  pz         
    17     -2.439785  1 C  pz                95     -1.704494  3 H  s          
   118     -1.704494  4 H  s                 50      1.252468  2 O  s          
    63      1.013017  2 O  pz                30     -0.953365  1 C  d  0       
     5     -0.763859  1 C  s                105      0.716388  3 H  pz         

 Vector   22  Occ=0.000000D+00  E= 2.812393D-01  Symmetry=b2
              MO Center= -2.0D-16, -1.5D-13, -3.2D-01, r^2= 1.0D+01
   Bfn.  Coefficient  Atom+Function         Bfn.  Coefficient  Atom+Function  
  ----- ------------  ---------------      ----- ------------  ---------------
    95      5.414842  3 H  s                118     -5.414842  4 H  s          
    16      4.309524  1 C  py                62     -3.311176  2 O  py         
    96     -2.838363  3 H  s                119      2.838363  4 H  s          
    13     -2.661424  1 C  py               104     -2.433447  3 H  py         
   127     -2.433447  4 H  py               105      2.134569  3 H  pz         

 Vector   23  Occ=0.000000D+00  E= 3.203389D-01  Symmetry=b1
              MO Center=  1.2D-16,  9.5D-16, -1.1D+00, r^2= 8.0D+00
   Bfn.  Coefficient  Atom+Function         Bfn.  Coefficient  Atom+Function  
  ----- ------------  ---------------      ----- ------------  ---------------
    12      3.875494  1 C  px               103     -2.635516  3 H  px         
   126     -2.635516  4 H  px                15      1.303146  1 C  px         
    31      0.756820  1 C  d  1              61     -0.489270  2 O  px         
     9      0.424866  1 C  px                58     -0.409692  2 O  px         
   111      0.286235  3 H  d -2             134     -0.286235  4 H  d -2       

 Vector   24  Occ=0.000000D+00  E= 3.381148D-01  Symmetry=b2
              MO Center=  2.1D-29,  1.6D-13, -9.7D-01, r^2= 9.7D+00
   Bfn.  Coefficient  Atom+Function         Bfn.  Coefficient  Atom+Function  
  ----- ------------  ---------------      ----- ------------  ---------------
    16      4.243264  1 C  py                96     -3.514703  3 H  s          
   119      3.514703  4 H  s                 13      2.796513  1 C  py         
   104     -2.384153  3 H  py               127     -2.384153  4 H  py         
   105     -1.500916  3 H  pz               128      1.500916  4 H  pz         
    95     -1.056637  3 H  s                118      1.056637  4 H  s          

 Vector   25  Occ=0.000000D+00  E= 3.391273D-01  Symmetry=a1
              MO Center=  6.3D-17,  4.7D-14, -5.7D-03, r^2= 1.0D+01
   Bfn.  Coefficient  Atom+Function         Bfn.  Coefficient  Atom+Function  
  ----- ------------  ---------------      ----- ------------  ---------------
    51     14.121088  2 O  s                  5     -6.759287  1 C  s          
    95     -5.964849  3 H  s                118     -5.964849  4 H  s          
   105     -4.746680  3 H  pz               128     -4.746680  4 H  pz         
    30     -4.185818  1 C  d  0              63     -4.023226  2 O  pz         
    32     -2.990750  1 C  d  2               4      2.711369  1 C  s          

 Vector   26  Occ=0.000000D+00  E= 3.589347D-01  Symmetry=a1
              MO Center= -3.0D-15,  2.6D-13, -7.7D-01, r^2= 9.1D+00
   Bfn.  Coefficient  Atom+Function         Bfn.  Coefficient  Atom+Function  
  ----- ------------  ---------------      ----- ------------  ---------------
     5     11.112133  1 C  s                  4     10.664910  1 C  s          
    95     -6.600319  3 H  s                118     -6.600319  4 H  s          
    51     -5.313983  2 O  s                 32     -2.223232  1 C  d  2       
    14     -2.083364  1 C  pz                50     -1.728876  2 O  s          
    94     -1.708642  3 H  s                117     -1.708642  4 H  s          

 Vector   27  Occ=0.000000D+00  E= 3.880567D-01  Symmetry=a1
              MO Center= -3.9D-17, -1.4D-14, -1.3D+00, r^2= 8.4D+00
   Bfn.  Coefficient  Atom+Function         Bfn.  Coefficient  Atom+Function  
  ----- ------------  ---------------      ----- ------------  ---------------
     4     20.333609  1 C  s                 95    -11.024482  3 H  s          
   118    -11.024482  4 H  s                  5      5.404934  1 C  s          
    14     -3.562644  1 C  pz               104      3.522237  3 H  py         
   127     -3.522237  4 H  py               105     -2.822619  3 H  pz         
   128     -2.822619  4 H  pz                94     -1.648004  3 H  s          

 Vector   28  Occ=0.000000D+00  E= 3.898158D-01  Symmetry=a2
              MO Center=  9.8D-14, -1.5D-12, -5.0D-01, r^2= 7.2D+00
   Bfn.  Coefficient  Atom+Function         Bfn.  Coefficient  Atom+Function  
  ----- ------------  ---------------      ----- ------------  ---------------
    28      3.619364  1 C  d -2             103     -3.493081  3 H  px         
   126      3.493081  4 H  px                23      0.278847  1 C  d -2       
   111      0.248431  3 H  d -2             134      0.248431  4 H  d -2       
   114      0.225399  3 H  d  1             137     -0.225399  4 H  d  1       
   100     -0.202743  3 H  px               123      0.202743  4 H  px         

 Vector   29  Occ=0.000000D+00  E= 3.959382D-01  Symmetry=b2
              MO Center= -9.9D-14, -8.2D-13, -1.0D+00, r^2= 9.7D+00
   Bfn.  Coefficient  Atom+Function         Bfn.  Coefficient  Atom+Function  
  ----- ------------  ---------------      ----- ------------  ---------------
    95     27.236925  3 H  s                118    -27.236925  4 H  s          
    13    -17.255275  1 C  py               104     -7.698740  3 H  py         
   127     -7.698740  4 H  py                29      3.395970  1 C  d -1       
   105      3.225011  3 H  pz               128     -3.225011  4 H  pz         
    96      2.579276  3 H  s                119     -2.579276  4 H  s          

 Vector   30  Occ=0.000000D+00  E= 4.187972D-01  Symmetry=b1
              MO Center= -2.3D-15,  1.6D-12, -3.8D-01, r^2= 6.8D+00
   Bfn.  Coefficient  Atom+Function         Bfn.  Coefficient  Atom+Function  
  ----- ------------  ---------------      ----- ------------  ---------------
    31      2.949074  1 C  d  1              61      1.979158  2 O  px         
    58      1.966550  2 O  px               103     -1.319191  3 H  px         
   126     -1.319191  4 H  px                77      0.632841  2 O  d  1       
    26      0.499193  1 C  d  1              15     -0.428382  1 C  px         
    12     -0.327030  1 C  px                44      0.295188  1 C  f  1       

 Vector   31  Occ=0.000000D+00  E= 4.824796D-01  Symmetry=a1
              MO Center=  7.8D-16,  2.2D-12, -7.9D-01, r^2= 7.6D+00
   Bfn.  Coefficient  Atom+Function         Bfn.  Coefficient  Atom+Function  
  ----- ------------  ---------------      ----- ------------  ---------------
     4      7.843381  1 C  s                 30     -5.635183  1 C  d  0       
   105     -4.746399  3 H  pz               128     -4.746399  4 H  pz         
    95     -4.708849  3 H  s                118     -4.708849  4 H  s          
    14      4.303667  1 C  pz                32     -3.391758  1 C  d  2       
     5      2.897243  1 C  s                 60      2.460647  2 O  pz         

 Vector   32  Occ=0.000000D+00  E= 4.986593D-01  Symmetry=b2
              MO Center= -7.7D-16, -2.4D-12, -5.0D-01, r^2= 6.9D+00
   Bfn.  Coefficient  Atom+Function         Bfn.  Coefficient  Atom+Function  
  ----- ------------  ---------------      ----- ------------  ---------------
    29      5.211450  1 C  d -1             105     -2.869878  3 H  pz         
   128      2.869878  4 H  pz                59     -2.110379  2 O  py         
    95      2.091826  3 H  s                118     -2.091826  4 H  s          
    62     -1.999329  2 O  py                96     -1.147923  3 H  s          
   119      1.147923  4 H  s                 16      1.141681  1 C  py         

 Vector   33  Occ=0.000000D+00  E= 5.621640D-01  Symmetry=b1
              MO Center= -7.8D-16, -3.8D-14, -6.4D-01, r^2= 5.2D+00
   Bfn.  Coefficient  Atom+Function         Bfn.  Coefficient  Atom+Function  
  ----- ------------  ---------------      ----- ------------  ---------------
    12      5.936019  1 C  px               103     -1.854189  3 H  px         
   126     -1.854189  4 H  px                58     -1.712052  2 O  px         
    77     -1.141750  2 O  d  1              61     -1.035928  2 O  px         
    26     -0.486074  1 C  d  1              15      0.421275  1 C  px         
    44     -0.382051  1 C  f  1             100     -0.337294  3 H  px         

 Vector   34  Occ=0.000000D+00  E= 5.674537D-01  Symmetry=a1
              MO Center=  2.7D-16,  4.0D-13, -5.4D-01, r^2= 5.8D+00
   Bfn.  Coefficient  Atom+Function         Bfn.  Coefficient  Atom+Function  
  ----- ------------  ---------------      ----- ------------  ---------------
    51     10.205192  2 O  s                 14     -7.057647  1 C  pz         
    95     -5.673846  3 H  s                118     -5.673846  4 H  s          
    50      5.612512  2 O  s                 30     -4.548468  1 C  d  0       
     4     -3.235922  1 C  s                105     -2.024023  3 H  pz         
   128     -2.024023  4 H  pz                32     -1.780123  1 C  d  2       

 Vector   35  Occ=0.000000D+00  E= 6.697336D-01  Symmetry=a1
              MO Center=  3.5D-16,  1.3D-11, -3.3D-01, r^2= 5.3D+00
   Bfn.  Coefficient  Atom+Function         Bfn.  Coefficient  Atom+Function  
  ----- ------------  ---------------      ----- ------------  ---------------
     4     13.173675  1 C  s                 95     -7.548082  3 H  s          
   118     -7.548082  4 H  s                 51      5.939538  2 O  s          
    30     -5.444229  1 C  d  0              14     -5.304940  1 C  pz         
   105     -3.378696  3 H  pz               128     -3.378696  4 H  pz         
    32     -3.291087  1 C  d  2              94     -2.271140  3 H  s          

 Vector   36  Occ=0.000000D+00  E= 6.769128D-01  Symmetry=b2
              MO Center=  1.2D-15, -1.3D-11, -3.7D-01, r^2= 6.3D+00
   Bfn.  Coefficient  Atom+Function         Bfn.  Coefficient  Atom+Function  
  ----- ------------  ---------------      ----- ------------  ---------------
    13     11.599603  1 C  py                95    -11.402940  3 H  s          
   118     11.402940  4 H  s                 59     -4.183445  2 O  py         
    16      3.471033  1 C  py                62     -2.789505  2 O  py         
    96     -2.645342  3 H  s                119      2.645342  4 H  s          
   104      2.377480  3 H  py               127      2.377480  4 H  py         

 Vector   37  Occ=0.000000D+00  E= 7.220986D-01  Symmetry=a1
              MO Center=  6.2D-16, -4.2D-15,  4.5D-01, r^2= 3.7D+00
   Bfn.  Coefficient  Atom+Function         Bfn.  Coefficient  Atom+Function  
  ----- ------------  ---------------      ----- ------------  ---------------
    51      5.879252  2 O  s                  5     -3.210647  1 C  s          
     4     -3.053470  1 C  s                 50      2.253297  2 O  s          
    63     -2.082148  2 O  pz                14     -2.055285  1 C  pz         
    30     -1.514644  1 C  d  0             105     -1.257140  3 H  pz         
   128     -1.257140  4 H  pz                95     -1.071274  3 H  s          

 Vector   38  Occ=0.000000D+00  E= 7.640534D-01  Symmetry=b2
              MO Center=  4.4D-16,  7.6D-13, -6.0D-01, r^2= 6.3D+00
   Bfn.  Coefficient  Atom+Function         Bfn.  Coefficient  Atom+Function  
  ----- ------------  ---------------      ----- ------------  ---------------
    95    -28.253838  3 H  s                118     28.253838  4 H  s          
    13     26.051607  1 C  py               104      4.763448  3 H  py         
   127      4.763448  4 H  py               105     -4.058649  3 H  pz         
   128      4.058649  4 H  pz                29     -3.688249  1 C  d -1       
    16      2.651397  1 C  py                59     -2.642022  2 O  py         

 Vector   39  Occ=0.000000D+00  E= 8.185598D-01  Symmetry=a2
              MO Center=  1.2D-15,  2.4D-13, -6.3D-01, r^2= 4.4D+00
   Bfn.  Coefficient  Atom+Function         Bfn.  Coefficient  Atom+Function  
  ----- ------------  ---------------      ----- ------------  ---------------
    23      1.204164  1 C  d -2              28     -1.158031  1 C  d -2       
    74      1.005691  2 O  d -2             111      0.872659  3 H  d -2       
   134      0.872659  4 H  d -2              41     -0.727437  1 C  f -2       
   100     -0.344896  3 H  px               123      0.344896  4 H  px         
   114      0.233331  3 H  d  1             137     -0.233331  4 H  d  1       

 Vector   40  Occ=0.000000D+00  E= 8.342796D-01  Symmetry=b1
              MO Center=  6.5D-14,  5.0D-13,  7.0D-01, r^2= 4.1D+00
   Bfn.  Coefficient  Atom+Function         Bfn.  Coefficient  Atom+Function  
  ----- ------------  ---------------      ----- ------------  ---------------
    61      1.629576  2 O  px                31      1.522473  1 C  d  1       
    77      1.489588  2 O  d  1             103     -0.792708  3 H  px         
   126     -0.792708  4 H  px                15     -0.570233  1 C  px         
    58      0.536177  2 O  px                 9     -0.517943  1 C  px         
    26      0.505920  1 C  d  1             111      0.492307  3 H  d -2       

 Vector   41  Occ=0.000000D+00  E= 8.422862D-01  Symmetry=a1
              MO Center= -7.8D-14,  9.7D-14, -6.1D-01, r^2= 6.1D+00
   Bfn.  Coefficient  Atom+Function         Bfn.  Coefficient  Atom+Function  
  ----- ------------  ---------------      ----- ------------  ---------------
     4     32.901027  1 C  s                 95    -11.898498  3 H  s          
   118    -11.898498  4 H  s                  5      8.185296  1 C  s          
    51     -5.937182  2 O  s                 50     -5.462142  2 O  s          
    14     -5.406312  1 C  pz                94     -3.991290  3 H  s          
   117     -3.991290  4 H  s                104      3.951861  3 H  py         

 Vector   42  Occ=0.000000D+00  E= 8.566551D-01  Symmetry=a1
              MO Center=  1.3D-14, -1.7D-13, -1.6D-01, r^2= 5.1D+00
   Bfn.  Coefficient  Atom+Function         Bfn.  Coefficient  Atom+Function  
  ----- ------------  ---------------      ----- ------------  ---------------
     4     17.816055  1 C  s                 95     -9.829287  3 H  s          
   118     -9.829287  4 H  s                  5      6.516682  1 C  s          
    14     -5.342904  1 C  pz                32     -3.555943  1 C  d  2       
    94     -3.096532  3 H  s                117     -3.096532  4 H  s          
    60      1.688444  2 O  pz                30     -1.616795  1 C  d  0       

 Vector   43  Occ=0.000000D+00  E= 8.760756D-01  Symmetry=a2
              MO Center= -1.5D-14, -4.8D-13,  3.6D-02, r^2= 4.5D+00
   Bfn.  Coefficient  Atom+Function         Bfn.  Coefficient  Atom+Function  
  ----- ------------  ---------------      ----- ------------  ---------------
    28      2.654051  1 C  d -2             103     -2.631738  3 H  px         
   126      2.631738  4 H  px                74     -1.478144  2 O  d -2       
    23      0.803426  1 C  d -2             111      0.482006  3 H  d -2       
   134      0.482006  4 H  d -2             114      0.430328  3 H  d  1       
   137     -0.430328  4 H  d  1             100     -0.105348  3 H  px         

 Vector   44  Occ=0.000000D+00  E= 8.823840D-01  Symmetry=b2
              MO Center=  1.3D-14,  8.9D-13, -2.6D-01, r^2= 4.7D+00
   Bfn.  Coefficient  Atom+Function         Bfn.  Coefficient  Atom+Function  
  ----- ------------  ---------------      ----- ------------  ---------------
    95     -3.846540  3 H  s                118      3.846540  4 H  s          
    13      3.603530  1 C  py                59     -1.858622  2 O  py         
   104      1.840359  3 H  py               127      1.840359  4 H  py         
    75      1.811524  2 O  d -1              24      1.007536  1 C  d -1       
    16     -0.871943  1 C  py                96      0.701169  3 H  s          

 Vector   45  Occ=0.000000D+00  E= 9.277005D-01  Symmetry=b2
              MO Center=  2.7D-16,  7.4D-13, -7.7D-01, r^2= 5.3D+00
   Bfn.  Coefficient  Atom+Function         Bfn.  Coefficient  Atom+Function  
  ----- ------------  ---------------      ----- ------------  ---------------
    95     20.485489  3 H  s                118    -20.485489  4 H  s          
    13    -16.161793  1 C  py               104     -5.816378  3 H  py         
   127     -5.816378  4 H  py                94      3.433653  3 H  s          
   117     -3.433653  4 H  s                 59      2.942877  2 O  py         
    29      2.374904  1 C  d -1              42     -2.142570  1 C  f -1       

 Vector   46  Occ=0.000000D+00  E= 9.339981D-01  Symmetry=b1
              MO Center=  2.4D-15, -4.1D-13, -1.2D+00, r^2= 4.3D+00
   Bfn.  Coefficient  Atom+Function         Bfn.  Coefficient  Atom+Function  
  ----- ------------  ---------------      ----- ------------  ---------------
    12      2.562372  1 C  px               103     -1.798738  3 H  px         
   126     -1.798738  4 H  px                26      1.175207  1 C  d  1       
   111      0.835224  3 H  d -2             134     -0.835224  4 H  d -2       
   114      0.752610  3 H  d  1             137      0.752610  4 H  d  1       
    15      0.702786  1 C  px                58      0.678197  2 O  px         

 Vector   47  Occ=0.000000D+00  E= 9.397155D-01  Symmetry=a1
              MO Center= -1.1D-15,  5.5D-13, -6.6D-01, r^2= 5.6D+00
   Bfn.  Coefficient  Atom+Function         Bfn.  Coefficient  Atom+Function  
  ----- ------------  ---------------      ----- ------------  ---------------
     4     15.898129  1 C  s                 95     -8.993648  3 H  s          
   118     -8.993648  4 H  s                 51      7.236859  2 O  s          
    94     -4.105615  3 H  s                117     -4.105615  4 H  s          
   105     -3.689092  3 H  pz               128     -3.689092  4 H  pz         
    14     -3.322699  1 C  pz                60     -2.851776  2 O  pz         

 Vector   48  Occ=0.000000D+00  E= 9.789840D-01  Symmetry=b1
              MO Center= -3.3D-15,  6.2D-13, -5.0D-01, r^2= 4.5D+00
   Bfn.  Coefficient  Atom+Function         Bfn.  Coefficient  Atom+Function  
  ----- ------------  ---------------      ----- ------------  ---------------
    12      2.088821  1 C  px                77     -1.522817  2 O  d  1       
    31      1.260260  1 C  d  1              58     -1.265427  2 O  px         
   114     -0.987982  3 H  d  1             137     -0.987982  4 H  d  1       
   103     -0.911624  3 H  px               126     -0.911624  4 H  px         
    44     -0.631381  1 C  f  1             111      0.551067  3 H  d -2       

 Vector   49  Occ=0.000000D+00  E= 1.001054D+00  Symmetry=a1
              MO Center= -5.5D-16,  5.4D-13, -9.2D-01, r^2= 4.5D+00
   Bfn.  Coefficient  Atom+Function         Bfn.  Coefficient  Atom+Function  
  ----- ------------  ---------------      ----- ------------  ---------------
    51      3.227881  2 O  s                 60     -3.032530  2 O  pz         
    50      2.593196  2 O  s                  4     -2.366420  1 C  s          
    30      1.639527  1 C  d  0              63     -1.325009  2 O  pz         
     5     -1.239236  1 C  s                 11     -1.135867  1 C  pz         
    25     -1.100107  1 C  d  0             113     -1.030209  3 H  d  0       

 Vector   50  Occ=0.000000D+00  E= 1.021038D+00  Symmetry=a2
              MO Center= -4.5D-15, -6.5D-13, -9.0D-01, r^2= 3.9D+00
   Bfn.  Coefficient  Atom+Function         Bfn.  Coefficient  Atom+Function  
  ----- ------------  ---------------      ----- ------------  ---------------
   103     -1.678957  3 H  px               126      1.678957  4 H  px         
    28      1.635994  1 C  d -2             114      1.065291  3 H  d  1       
   137     -1.065291  4 H  d  1             100     -0.456048  3 H  px         
   123      0.456048  4 H  px                23      0.388666  1 C  d -2       
    74      0.368043  2 O  d -2              41     -0.343295  1 C  f -2       

 Vector   51  Occ=0.000000D+00  E= 1.023802D+00  Symmetry=b2
              MO Center=  4.6D-15, -6.6D-12, -1.3D+00, r^2= 5.0D+00
   Bfn.  Coefficient  Atom+Function         Bfn.  Coefficient  Atom+Function  
  ----- ------------  ---------------      ----- ------------  ---------------
    59     -3.189587  2 O  py                13      2.998681  1 C  py         
    95      2.585606  3 H  s                118     -2.585606  4 H  s          
    10     -2.449313  1 C  py               104     -2.178913  3 H  py         
   127     -2.178913  4 H  py                94      1.820838  3 H  s          
   117     -1.820838  4 H  s                 24      1.698475  1 C  d -1       

 Vector   52  Occ=0.000000D+00  E= 1.037378D+00  Symmetry=a1
              MO Center=  8.0D-15, -2.2D-12,  3.9D-01, r^2= 4.6D+00
   Bfn.  Coefficient  Atom+Function         Bfn.  Coefficient  Atom+Function  
  ----- ------------  ---------------      ----- ------------  ---------------
     4     11.145344  1 C  s                 51     -7.712187  2 O  s          
    14      7.646001  1 C  pz                50     -6.582149  2 O  s          
     5      4.060981  1 C  s                 60      2.849245  2 O  pz         
    25      1.295014  1 C  d  0              94     -1.180154  3 H  s          
   117     -1.180154  4 H  s                105     -1.057050  3 H  pz         

 Vector   53  Occ=0.000000D+00  E= 1.068441D+00  Symmetry=a1
              MO Center=  8.9D-16,  4.1D-12, -9.3D-01, r^2= 4.7D+00
   Bfn.  Coefficient  Atom+Function         Bfn.  Coefficient  Atom+Function  
  ----- ------------  ---------------      ----- ------------  ---------------
     4     11.291520  1 C  s                 94     -3.740231  3 H  s          
   117     -3.740231  4 H  s                 95     -3.581546  3 H  s          
   118     -3.581546  4 H  s                 50     -2.457179  2 O  s          
    27     -1.470755  1 C  d  2             115     -1.297550  3 H  d  2       
   138     -1.297550  4 H  d  2              43      1.213702  1 C  f  0       

 Vector   54  Occ=0.000000D+00  E= 1.082476D+00  Symmetry=b1
              MO Center= -1.3D-15,  4.2D-15, -2.1D-01, r^2= 3.7D+00
   Bfn.  Coefficient  Atom+Function         Bfn.  Coefficient  Atom+Function  
  ----- ------------  ---------------      ----- ------------  ---------------
    58      4.177610  2 O  px                31      1.904466  1 C  d  1       
    77      1.337669  2 O  d  1              44      1.172175  1 C  f  1       
    26      1.074920  1 C  d  1              12     -0.918053  1 C  px         
   103     -0.915471  3 H  px               126     -0.915471  4 H  px         
    61      0.668522  2 O  px                55     -0.536340  2 O  px         

 Vector   55  Occ=0.000000D+00  E= 1.099413D+00  Symmetry=a2
              MO Center=  1.7D-15, -2.2D-14, -9.5D-01, r^2= 3.6D+00
   Bfn.  Coefficient  Atom+Function         Bfn.  Coefficient  Atom+Function  
  ----- ------------  ---------------      ----- ------------  ---------------
   111      1.339659  3 H  d -2             134      1.339659  4 H  d -2       
   100     -0.852400  3 H  px               123      0.852400  4 H  px         
    41     -0.810565  1 C  f -2             103     -0.788981  3 H  px         
   126      0.788981  4 H  px                74      0.555389  2 O  d -2       
    28      0.181936  1 C  d -2             114     -0.111144  3 H  d  1       

 Vector   56  Occ=0.000000D+00  E= 1.101866D+00  Symmetry=b2
              MO Center= -1.9D-15,  1.0D-12, -3.3D-01, r^2= 5.1D+00
   Bfn.  Coefficient  Atom+Function         Bfn.  Coefficient  Atom+Function  
  ----- ------------  ---------------      ----- ------------  ---------------
    95      8.398287  3 H  s                118     -8.398287  4 H  s          
    13     -6.113540  1 C  py                29      4.833593  1 C  d -1       
    94      2.079171  3 H  s                117     -2.079171  4 H  s          
   104     -1.433780  3 H  py               127     -1.433780  4 H  py         
   105     -1.339601  3 H  pz               128      1.339601  4 H  pz         

 Vector   57  Occ=0.000000D+00  E= 1.259160D+00  Symmetry=b1
              MO Center= -8.5D-16,  2.2D-13, -6.1D-01, r^2= 3.3D+00
   Bfn.  Coefficient  Atom+Function         Bfn.  Coefficient  Atom+Function  
  ----- ------------  ---------------      ----- ------------  ---------------
    12      2.399203  1 C  px                58     -1.864636  2 O  px         
     9      1.430476  1 C  px                77     -1.154110  2 O  d  1       
    26     -0.821735  1 C  d  1              46     -0.730975  1 C  f  3       
   111      0.646545  3 H  d -2             134     -0.646545  4 H  d -2       
   103     -0.606283  3 H  px               126     -0.606283  4 H  px         

 Vector   58  Occ=0.000000D+00  E= 1.265266D+00  Symmetry=a1
              MO Center=  2.9D-16, -1.1D-13, -2.6D-01, r^2= 4.3D+00
   Bfn.  Coefficient  Atom+Function         Bfn.  Coefficient  Atom+Function  
  ----- ------------  ---------------      ----- ------------  ---------------
    30      4.993081  1 C  d  0              60     -4.532212  2 O  pz         
    11     -3.582476  1 C  pz                95      3.247810  3 H  s          
   118      3.247810  4 H  s                 94     -3.186841  3 H  s          
   117     -3.186841  4 H  s                105      2.981606  3 H  pz         
   128      2.981606  4 H  pz                32      2.583456  1 C  d  2       

 Vector   59  Occ=0.000000D+00  E= 1.304757D+00  Symmetry=b2
              MO Center= -7.3D-17,  7.5D-13, -1.3D-01, r^2= 4.4D+00
   Bfn.  Coefficient  Atom+Function         Bfn.  Coefficient  Atom+Function  
  ----- ------------  ---------------      ----- ------------  ---------------
    13     11.992869  1 C  py                95     -8.975190  3 H  s          
   118      8.975190  4 H  s                 59     -7.256538  2 O  py         
    75      3.267514  2 O  d -1              24      2.597563  1 C  d -1       
   105     -2.192797  3 H  pz               128      2.192797  4 H  pz         
    42      1.839965  1 C  f -1             104      1.468239  3 H  py         

 Vector   60  Occ=0.000000D+00  E= 1.370381D+00  Symmetry=a1
              MO Center=  2.5D-16,  1.4D-13, -7.7D-01, r^2= 3.5D+00
   Bfn.  Coefficient  Atom+Function         Bfn.  Coefficient  Atom+Function  
  ----- ------------  ---------------      ----- ------------  ---------------
     4      5.888851  1 C  s                 50     -4.380599  2 O  s          
    51     -3.596673  2 O  s                  5      2.331153  1 C  s          
    43      1.326494  1 C  f  0              60      1.264987  2 O  pz         
    30      1.245300  1 C  d  0             105      1.240256  3 H  pz         
   128      1.240256  4 H  pz               113      1.057181  3 H  d  0       

 Vector   61  Occ=0.000000D+00  E= 1.389284D+00  Symmetry=b1
              MO Center=  7.8D-17, -4.4D-15, -5.7D-01, r^2= 3.2D+00
   Bfn.  Coefficient  Atom+Function         Bfn.  Coefficient  Atom+Function  
  ----- ------------  ---------------      ----- ------------  ---------------
    12      4.860420  1 C  px                58     -3.469263  2 O  px         
    77     -1.787976  2 O  d  1              26     -1.701908  1 C  d  1       
     9      1.353563  1 C  px                46      1.297269  1 C  f  3       
   100     -0.961516  3 H  px               123     -0.961516  4 H  px         
    61     -0.927338  2 O  px               103     -0.902675  3 H  px         

 Vector   62  Occ=0.000000D+00  E= 1.457585D+00  Symmetry=a1
              MO Center= -1.5D-17, -5.0D-13, -2.3D-01, r^2= 3.7D+00
   Bfn.  Coefficient  Atom+Function         Bfn.  Coefficient  Atom+Function  
  ----- ------------  ---------------      ----- ------------  ---------------
    50     -6.500059  2 O  s                 14      5.965936  1 C  pz         
    51     -5.125367  2 O  s                 95      4.520492  3 H  s          
   118      4.520492  4 H  s                 60      2.254750  2 O  pz         
    43      1.910767  1 C  f  0              11      1.814284  1 C  pz         
    63      1.351780  2 O  pz                32      1.229135  1 C  d  2       

 Vector   63  Occ=0.000000D+00  E= 1.477126D+00  Symmetry=b2
              MO Center= -1.7D-15, -4.5D-13, -4.0D-01, r^2= 3.9D+00
   Bfn.  Coefficient  Atom+Function         Bfn.  Coefficient  Atom+Function  
  ----- ------------  ---------------      ----- ------------  ---------------
    13     12.393718  1 C  py                95    -11.920945  3 H  s          
   118     11.920945  4 H  s                 59     -5.737268  2 O  py         
   104      3.181515  3 H  py               127      3.181515  4 H  py         
    75      2.466355  2 O  d -1             105     -1.775825  3 H  pz         
   128      1.775825  4 H  pz                42      1.490429  1 C  f -1       

 Vector   64  Occ=0.000000D+00  E= 1.512884D+00  Symmetry=a2
              MO Center=  3.2D-15, -2.6D-14, -4.9D-01, r^2= 3.6D+00
   Bfn.  Coefficient  Atom+Function         Bfn.  Coefficient  Atom+Function  
  ----- ------------  ---------------      ----- ------------  ---------------
    41      2.321481  1 C  f -2              28      1.658272  1 C  d -2       
    74     -1.616015  2 O  d -2             103     -1.532339  3 H  px         
   126      1.532339  4 H  px               114      1.079754  3 H  d  1       
   137     -1.079754  4 H  d  1              23      0.815626  1 C  d -2       
   100      0.453063  3 H  px               123     -0.453063  4 H  px         

 Vector   65  Occ=0.000000D+00  E= 1.572008D+00  Symmetry=b2
              MO Center= -1.5D-15,  1.6D-12, -5.9D-01, r^2= 3.6D+00
   Bfn.  Coefficient  Atom+Function         Bfn.  Coefficient  Atom+Function  
  ----- ------------  ---------------      ----- ------------  ---------------
    13     24.943684  1 C  py                95    -24.543151  3 H  s          
   118     24.543151  4 H  s                 94     -5.929033  3 H  s          
   117      5.929033  4 H  s                104      4.165950  3 H  py         
   127      4.165950  4 H  py               105     -3.505035  3 H  pz         
   128      3.505035  4 H  pz                29     -3.168890  1 C  d -1       

 Vector   66  Occ=0.000000D+00  E= 1.597990D+00  Symmetry=a1
              MO Center=  7.0D-19, -7.6D-13, -4.6D-01, r^2= 3.5D+00
   Bfn.  Coefficient  Atom+Function         Bfn.  Coefficient  Atom+Function  
  ----- ------------  ---------------      ----- ------------  ---------------
     4     21.904208  1 C  s                 14    -11.000956  1 C  pz         
    95    -10.861552  3 H  s                118    -10.861552  4 H  s          
    94     -4.634675  3 H  s                117     -4.634675  4 H  s          
    60      4.406795  2 O  pz                30     -3.809793  1 C  d  0       
    51      3.737957  2 O  s                 32     -2.655862  1 C  d  2       

 Vector   67  Occ=0.000000D+00  E= 1.627578D+00  Symmetry=b1
              MO Center= -1.4D-17,  1.5D-14, -6.2D-01, r^2= 3.3D+00
   Bfn.  Coefficient  Atom+Function         Bfn.  Coefficient  Atom+Function  
  ----- ------------  ---------------      ----- ------------  ---------------
    12      2.081351  1 C  px                44     -1.855532  1 C  f  1       
    26      1.424664  1 C  d  1              31      1.332775  1 C  d  1       
   103     -1.235262  3 H  px               111      1.231552  3 H  d -2       
   126     -1.235262  4 H  px               134     -1.231552  4 H  d -2       
   100     -0.748595  3 H  px               123     -0.748595  4 H  px         

 Vector   68  Occ=0.000000D+00  E= 1.707042D+00  Symmetry=a1
              MO Center= -5.2D-17,  3.6D-13, -4.4D-01, r^2= 3.4D+00
   Bfn.  Coefficient  Atom+Function         Bfn.  Coefficient  Atom+Function  
  ----- ------------  ---------------      ----- ------------  ---------------
     4     33.973177  1 C  s                 50     -9.531335  2 O  s          
    94     -8.967840  3 H  s                117     -8.967840  4 H  s          
    95     -8.821674  3 H  s                118     -8.821674  4 H  s          
     5      5.821807  1 C  s                 51     -4.834807  2 O  s          
    27     -4.611302  1 C  d  2              60      2.339611  2 O  pz         

 Vector   69  Occ=0.000000D+00  E= 1.730310D+00  Symmetry=b2
              MO Center= -2.6D-17,  3.4D-13, -5.8D-01, r^2= 3.1D+00
   Bfn.  Coefficient  Atom+Function         Bfn.  Coefficient  Atom+Function  
  ----- ------------  ---------------      ----- ------------  ---------------
    95     -6.498162  3 H  s                118      6.498162  4 H  s          
    13      6.146130  1 C  py                24     -3.290392  1 C  d -1       
    94     -3.150692  3 H  s                117      3.150692  4 H  s          
    29     -2.819667  1 C  d -1             104      1.330130  3 H  py         
   127      1.330130  4 H  py               102      0.999908  3 H  pz         

 Vector   70  Occ=0.000000D+00  E= 1.835186D+00  Symmetry=b1
              MO Center= -8.7D-18,  8.4D-13, -3.2D-01, r^2= 2.8D+00
   Bfn.  Coefficient  Atom+Function         Bfn.  Coefficient  Atom+Function  
  ----- ------------  ---------------      ----- ------------  ---------------
    58      2.929972  2 O  px                26      2.863539  1 C  d  1       
   100     -1.976623  3 H  px               123     -1.976623  4 H  px         
    77      1.642660  2 O  d  1              44      1.450220  1 C  f  1       
    46      1.355131  1 C  f  3             103     -1.006474  3 H  px         
   126     -1.006474  4 H  px               114      0.974752  3 H  d  1       

 Vector   71  Occ=0.000000D+00  E= 1.963691D+00  Symmetry=b2
              MO Center=  6.1D-17,  3.4D-13, -6.8D-01, r^2= 3.3D+00
   Bfn.  Coefficient  Atom+Function         Bfn.  Coefficient  Atom+Function  
  ----- ------------  ---------------      ----- ------------  ---------------
    94      7.525066  3 H  s                117     -7.525066  4 H  s          
    95      6.841476  3 H  s                118     -6.841476  4 H  s          
    10     -6.200470  1 C  py                24      5.808561  1 C  d -1       
   101     -5.021485  3 H  py               124     -5.021485  4 H  py         
   104     -2.694739  3 H  py               127     -2.694739  4 H  py         

 Vector   72  Occ=0.000000D+00  E= 2.006215D+00  Symmetry=a2
              MO Center=  3.7D-16, -7.7D-13, -9.4D-01, r^2= 2.9D+00
   Bfn.  Coefficient  Atom+Function         Bfn.  Coefficient  Atom+Function  
  ----- ------------  ---------------      ----- ------------  ---------------
    23      3.659004  1 C  d -2             100     -3.450367  3 H  px         
   123      3.450367  4 H  px                41     -2.320780  1 C  f -2       
   103     -1.394333  3 H  px               111      1.399726  3 H  d -2       
   126      1.394333  4 H  px               134      1.399726  4 H  d -2       
    28      0.723089  1 C  d -2             114      0.577851  3 H  d  1       

 Vector   73  Occ=0.000000D+00  E= 2.033009D+00  Symmetry=a1
              MO Center=  1.2D-16, -5.1D-15, -7.6D-01, r^2= 3.1D+00
   Bfn.  Coefficient  Atom+Function         Bfn.  Coefficient  Atom+Function  
  ----- ------------  ---------------      ----- ------------  ---------------
    51      4.976542  2 O  s                 50      4.332531  2 O  s          
     4     -4.305749  1 C  s                 30     -3.288823  1 C  d  0       
    25     -3.122701  1 C  d  0               5     -3.031718  1 C  s          
   104     -2.099469  3 H  py               127      2.099469  4 H  py         
    32     -2.015668  1 C  d  2             105     -1.904661  3 H  pz         

 Vector   74  Occ=0.000000D+00  E= 2.097301D+00  Symmetry=a1
              MO Center=  2.1D-17,  1.1D-12, -6.7D-01, r^2= 3.4D+00
   Bfn.  Coefficient  Atom+Function         Bfn.  Coefficient  Atom+Function  
  ----- ------------  ---------------      ----- ------------  ---------------
     4     12.231755  1 C  s                 95     -7.848762  3 H  s          
   118     -7.848762  4 H  s                 50      6.962940  2 O  s          
    94     -5.719602  3 H  s                117     -5.719602  4 H  s          
    51      5.040737  2 O  s                 14     -4.165202  1 C  pz         
    11     -4.064405  1 C  pz                25     -3.641744  1 C  d  0       

 Vector   75  Occ=0.000000D+00  E= 2.180113D+00  Symmetry=b2
              MO Center=  1.7D-16, -1.3D-12, -6.5D-01, r^2= 3.2D+00
   Bfn.  Coefficient  Atom+Function         Bfn.  Coefficient  Atom+Function  
  ----- ------------  ---------------      ----- ------------  ---------------
    13     15.053165  1 C  py                95    -13.231472  3 H  s          
   118     13.231472  4 H  s                 59     -7.167003  2 O  py         
    42      6.175618  1 C  f -1             102      4.410692  3 H  pz         
   125     -4.410692  4 H  pz               104      2.992782  3 H  py         
   127      2.992782  4 H  py                75      2.409751  2 O  d -1       

 Vector   76  Occ=0.000000D+00  E= 2.286761D+00  Symmetry=b1
              MO Center= -8.8D-18, -7.6D-15,  5.5D-01, r^2= 1.8D+00
   Bfn.  Coefficient  Atom+Function         Bfn.  Coefficient  Atom+Function  
  ----- ------------  ---------------      ----- ------------  ---------------
    92      1.070631  2 O  f  3              46     -0.852697  1 C  f  3       
    77     -0.472334  2 O  d  1               9      0.469510  1 C  px         
    72      0.406687  2 O  d  1             100      0.392757  3 H  px         
   123      0.392757  4 H  px                 6     -0.250206  1 C  px         
   111      0.239918  3 H  d -2             134     -0.239918  4 H  d -2       

 Vector   77  Occ=0.000000D+00  E= 2.321849D+00  Symmetry=b2
              MO Center= -3.6D-15,  4.9D-13,  2.7D-01, r^2= 2.4D+00
   Bfn.  Coefficient  Atom+Function         Bfn.  Coefficient  Atom+Function  
  ----- ------------  ---------------      ----- ------------  ---------------
    42      3.006266  1 C  f -1              59     -2.649498  2 O  py         
   102      2.242244  3 H  pz               125     -2.242244  4 H  pz         
    40      1.511938  1 C  f -3              13      1.456870  1 C  py         
    86     -1.107302  2 O  f -3             101      1.080457  3 H  py         
   124      1.080457  4 H  py                75      0.810520  2 O  d -1       

 Vector   78  Occ=0.000000D+00  E= 2.340628D+00  Symmetry=a1
              MO Center=  2.3D-17, -3.8D-13,  3.4D-01, r^2= 1.9D+00
   Bfn.  Coefficient  Atom+Function         Bfn.  Coefficient  Atom+Function  
  ----- ------------  ---------------      ----- ------------  ---------------
     4      4.702656  1 C  s                 94     -2.363939  3 H  s          
   117     -2.363939  4 H  s                 60     -2.240544  2 O  pz         
    11     -1.781829  1 C  pz                27     -1.312248  1 C  d  2       
    95     -1.190424  3 H  s                118     -1.190424  4 H  s          
   102     -1.167444  3 H  pz               125     -1.167444  4 H  pz         

 Vector   79  Occ=0.000000D+00  E= 2.343987D+00  Symmetry=a2
              MO Center=  3.5D-15,  1.2D-15,  6.6D-01, r^2= 1.5D+00
   Bfn.  Coefficient  Atom+Function         Bfn.  Coefficient  Atom+Function  
  ----- ------------  ---------------      ----- ------------  ---------------
    69      1.267053  2 O  d -2              28      0.972141  1 C  d -2       
    74     -0.941422  2 O  d -2             103     -0.705979  3 H  px         
   126      0.705979  4 H  px                87      0.370419  2 O  f -2       
    41     -0.312318  1 C  f -2             114     -0.123857  3 H  d  1       
   137      0.123857  4 H  d  1              34      0.123078  1 C  f -2       

 Vector   80  Occ=0.000000D+00  E= 2.489757D+00  Symmetry=b1
              MO Center= -2.3D-17, -1.4D-14,  7.4D-01, r^2= 1.9D+00
   Bfn.  Coefficient  Atom+Function         Bfn.  Coefficient  Atom+Function  
  ----- ------------  ---------------      ----- ------------  ---------------
     9      1.224785  1 C  px                90      1.049105  2 O  f  1       
    12      1.028959  1 C  px                44      1.027695  1 C  f  1       
    77     -0.938159  2 O  d  1              46      0.879621  1 C  f  3       
   100     -0.830614  3 H  px               123     -0.830614  4 H  px         
    72      0.789104  2 O  d  1              26      0.678997  1 C  d  1       

 Vector   81  Occ=0.000000D+00  E= 2.497612D+00  Symmetry=a1
              MO Center= -6.2D-17,  1.6D-13,  9.7D-01, r^2= 1.7D+00
   Bfn.  Coefficient  Atom+Function         Bfn.  Coefficient  Atom+Function  
  ----- ------------  ---------------      ----- ------------  ---------------
    50      5.771782  2 O  s                 14     -4.560702  1 C  pz         
    51      4.085481  2 O  s                  4     -3.260137  1 C  s          
    25     -1.920904  1 C  d  0              95     -1.631334  3 H  s          
   118     -1.631334  4 H  s                 30     -1.550928  1 C  d  0       
    76     -1.540657  2 O  d  0               5     -1.485946  1 C  s          

 Vector   82  Occ=0.000000D+00  E= 2.559867D+00  Symmetry=b2
              MO Center=  5.9D-18, -2.2D-13,  5.8D-01, r^2= 2.5D+00
   Bfn.  Coefficient  Atom+Function         Bfn.  Coefficient  Atom+Function  
  ----- ------------  ---------------      ----- ------------  ---------------
    95      4.818826  3 H  s                118     -4.818826  4 H  s          
    94      4.464555  3 H  s                117     -4.464555  4 H  s          
    10     -4.296521  1 C  py                13     -3.096858  1 C  py         
    29      2.459606  1 C  d -1              24      2.371103  1 C  d -1       
    42      1.932200  1 C  f -1             102      1.653544  3 H  pz         

 Vector   83  Occ=0.000000D+00  E= 2.604904D+00  Symmetry=a1
              MO Center= -2.5D-18,  4.1D-15,  3.2D-01, r^2= 2.2D+00
   Bfn.  Coefficient  Atom+Function         Bfn.  Coefficient  Atom+Function  
  ----- ------------  ---------------      ----- ------------  ---------------
     4      7.483916  1 C  s                 95     -2.377839  3 H  s          
   118     -2.377839  4 H  s                 94     -2.050978  3 H  s          
   117     -2.050978  4 H  s                 25      1.825908  1 C  d  0       
    50     -1.812876  2 O  s                 43      1.192934  1 C  f  0       
    32     -1.146678  1 C  d  2              91     -1.081985  2 O  f  2       

 Vector   84  Occ=0.000000D+00  E= 2.715606D+00  Symmetry=b1
              MO Center=  7.1D-21, -1.6D-13, -1.4D-02, r^2= 2.1D+00
   Bfn.  Coefficient  Atom+Function         Bfn.  Coefficient  Atom+Function  
  ----- ------------  ---------------      ----- ------------  ---------------
    26      3.177107  1 C  d  1              58      3.169721  2 O  px         
    77      1.458266  2 O  d  1             100     -1.290883  3 H  px         
   123     -1.290883  4 H  px                90     -1.195491  2 O  f  1       
    72      1.084657  2 O  d  1              46      0.918882  1 C  f  3       
   103     -0.734428  3 H  px               126     -0.734428  4 H  px         

 Vector   85  Occ=0.000000D+00  E= 2.782755D+00  Symmetry=a2
              MO Center=  6.1D-17, -9.5D-15,  4.7D-01, r^2= 2.0D+00
   Bfn.  Coefficient  Atom+Function         Bfn.  Coefficient  Atom+Function  
  ----- ------------  ---------------      ----- ------------  ---------------
    41      1.893387  1 C  f -2              87      1.667784  2 O  f -2       
    74     -1.385787  2 O  d -2              23      1.370416  1 C  d -2       
    28      0.809764  1 C  d -2             103     -0.603892  3 H  px         
   126      0.603892  4 H  px               114      0.596137  3 H  d  1       
   137     -0.596137  4 H  d  1              69     -0.466822  2 O  d -2       

 Vector   86  Occ=0.000000D+00  E= 2.807753D+00  Symmetry=a1
              MO Center=  2.3D-17,  1.3D-13, -1.9D-01, r^2= 2.7D+00
   Bfn.  Coefficient  Atom+Function         Bfn.  Coefficient  Atom+Function  
  ----- ------------  ---------------      ----- ------------  ---------------
    50     -6.873116  2 O  s                 11      6.313799  1 C  pz         
    60      5.389048  2 O  pz                14      5.180231  1 C  pz         
    51     -5.020304  2 O  s                 94      4.286460  3 H  s          
   117      4.286460  4 H  s                 95      2.023826  3 H  s          
   118      2.023826  4 H  s                101     -1.892631  3 H  py         

 Vector   87  Occ=0.000000D+00  E= 2.919188D+00  Symmetry=b2
              MO Center= -7.4D-17, -3.5D-13, -7.2D-02, r^2= 2.5D+00
   Bfn.  Coefficient  Atom+Function         Bfn.  Coefficient  Atom+Function  
  ----- ------------  ---------------      ----- ------------  ---------------
    94      5.472274  3 H  s                117     -5.472274  4 H  s          
    24      5.017349  1 C  d -1              59     -4.317321  2 O  py         
    95      4.162764  3 H  s                118     -4.162764  4 H  s          
    29      2.730407  1 C  d -1              75      2.084998  2 O  d -1       
   101     -1.808210  3 H  py               124     -1.808210  4 H  py         

 Vector   88  Occ=0.000000D+00  E= 2.927777D+00  Symmetry=a1
              MO Center= -2.8D-18, -4.9D-15,  3.5D-01, r^2= 2.2D+00
   Bfn.  Coefficient  Atom+Function         Bfn.  Coefficient  Atom+Function  
  ----- ------------  ---------------      ----- ------------  ---------------
    50      7.234501  2 O  s                 11     -5.537810  1 C  pz         
    60     -5.296173  2 O  pz                51      3.750470  2 O  s          
    94     -3.423619  3 H  s                117     -3.423619  4 H  s          
    27     -3.034696  1 C  d  2              25     -2.959868  1 C  d  0       
    14     -2.146975  1 C  pz               102     -2.145382  3 H  pz         

 Vector   89  Occ=0.000000D+00  E= 3.066390D+00  Symmetry=b2
              MO Center=  3.0D-16,  4.7D-13, -2.8D-01, r^2= 2.2D+00
   Bfn.  Coefficient  Atom+Function         Bfn.  Coefficient  Atom+Function  
  ----- ------------  ---------------      ----- ------------  ---------------
    59     -4.074926  2 O  py                24      3.841293  1 C  d -1       
    13      3.456690  1 C  py                95     -2.759550  3 H  s          
   118      2.759550  4 H  s                 10      2.210715  1 C  py         
    75      1.700473  2 O  d -1              70      1.315048  2 O  d -1       
   105     -1.285311  3 H  pz               128      1.285311  4 H  pz         

 Vector   90  Occ=0.000000D+00  E= 3.077706D+00  Symmetry=b1
              MO Center=  1.7D-21,  6.3D-14, -2.3D-01, r^2= 1.9D+00
   Bfn.  Coefficient  Atom+Function         Bfn.  Coefficient  Atom+Function  
  ----- ------------  ---------------      ----- ------------  ---------------
    58      4.785708  2 O  px                 9     -4.070771  1 C  px         
    12     -3.499951  1 C  px                26      2.593508  1 C  d  1       
    77      2.286472  2 O  d  1               6      1.102644  1 C  px         
    44      1.045825  1 C  f  1              72      1.028153  2 O  d  1       
    90     -1.010457  2 O  f  1              31      0.823930  1 C  d  1       

 Vector   91  Occ=0.000000D+00  E= 3.145083D+00  Symmetry=a1
              MO Center=  2.0D-18,  1.4D-13, -7.3D-01, r^2= 1.8D+00
   Bfn.  Coefficient  Atom+Function         Bfn.  Coefficient  Atom+Function  
  ----- ------------  ---------------      ----- ------------  ---------------
     4      4.853873  1 C  s                 60      3.295898  2 O  pz         
    50     -2.672618  2 O  s                 95     -2.392461  3 H  s          
   118     -2.392461  4 H  s                 11      2.347633  1 C  pz         
    43     -1.564336  1 C  f  0              30     -1.393415  1 C  d  0       
     5      1.349409  1 C  s                  2      1.340056  1 C  s          

 Vector   92  Occ=0.000000D+00  E= 3.186485D+00  Symmetry=a2
              MO Center= -9.8D-16, -3.1D-14, -7.2D-01, r^2= 1.0D+00
   Bfn.  Coefficient  Atom+Function         Bfn.  Coefficient  Atom+Function  
  ----- ------------  ---------------      ----- ------------  ---------------
    23      1.205460  1 C  d -2              18     -0.914743  1 C  d -2       
    28     -0.384500  1 C  d -2              41     -0.331497  1 C  f -2       
    97     -0.276677  3 H  px               120      0.276677  4 H  px         
   100     -0.245116  3 H  px               123      0.245116  4 H  px         
    34      0.233416  1 C  f -2             106      0.231260  3 H  d -2       

 Vector   93  Occ=0.000000D+00  E= 3.412299D+00  Symmetry=b1
              MO Center= -2.1D-22,  1.9D-14, -6.2D-01, r^2= 1.3D+00
[...]
    94     -5.205134  3 H  s                117     -5.205134  4 H  s          
    60     -5.083777  2 O  pz                51      4.762172  2 O  s          
    14     -4.297302  1 C  pz                57     -2.789335  2 O  pz         
    95     -2.482308  3 H  s                118     -2.482308  4 H  s          

 Vector  124  Occ=0.000000D+00  E= 6.335021D+00  Symmetry=b2
              MO Center=  3.0D-19, -4.2D-13, -1.8D-01, r^2= 1.6D+00
   Bfn.  Coefficient  Atom+Function         Bfn.  Coefficient  Atom+Function  
  ----- ------------  ---------------      ----- ------------  ---------------
    10      8.683212  1 C  py                95     -8.287845  3 H  s          
   118      8.287845  4 H  s                 94     -8.157816  3 H  s          
   117      8.157816  4 H  s                 13      7.599852  1 C  py         
   101      3.303798  3 H  py               124      3.303798  4 H  py         
    24     -2.950501  1 C  d -1             104      1.949959  3 H  py         

 Vector  125  Occ=0.000000D+00  E= 6.376106D+00  Symmetry=b1
              MO Center=  7.3D-18, -8.8D-16,  6.7D-01, r^2= 5.8D-01
   Bfn.  Coefficient  Atom+Function         Bfn.  Coefficient  Atom+Function  
  ----- ------------  ---------------      ----- ------------  ---------------
    85      1.216179  2 O  f  3              92     -0.669891  2 O  f  3       
    46      0.415018  1 C  f  3             100     -0.347246  3 H  px         
   123     -0.347246  4 H  px                26      0.248973  1 C  d  1       
    12      0.238588  1 C  px                 9      0.190466  1 C  px         
    44      0.109815  1 C  f  1              58      0.108067  2 O  px         

 Vector  126  Occ=0.000000D+00  E= 6.413197D+00  Symmetry=b2
              MO Center= -1.3D-18, -2.4D-13, -8.1D-03, r^2= 1.5D+00
   Bfn.  Coefficient  Atom+Function         Bfn.  Coefficient  Atom+Function  
  ----- ------------  ---------------      ----- ------------  ---------------
    10      7.749181  1 C  py                94     -6.965077  3 H  s          
   117      6.965077  4 H  s                 95     -5.928067  3 H  s          
   118      5.928067  4 H  s                 13      5.415248  1 C  py         
   101      3.228621  3 H  py               124      3.228621  4 H  py         
    24     -2.410696  1 C  d -1             102     -1.516615  3 H  pz         

 Vector  127  Occ=0.000000D+00  E= 6.696482D+00  Symmetry=a2
              MO Center= -8.0D-17,  1.8D-17,  6.6D-01, r^2= 7.2D-01
   Bfn.  Coefficient  Atom+Function         Bfn.  Coefficient  Atom+Function  
  ----- ------------  ---------------      ----- ------------  ---------------
    80      1.276515  2 O  f -2              87     -0.945616  2 O  f -2       
    41     -0.855910  1 C  f -2              74      0.727947  2 O  d -2       
    23     -0.474902  1 C  d -2              28     -0.377191  1 C  d -2       
    34      0.321572  1 C  f -2             100     -0.225553  3 H  px         
   123      0.225553  4 H  px               103      0.222509  3 H  px         

 Vector  128  Occ=0.000000D+00  E= 6.729323D+00  Symmetry=a1
              MO Center= -1.6D-19,  8.5D-15,  5.4D-01, r^2= 8.5D-01
   Bfn.  Coefficient  Atom+Function         Bfn.  Coefficient  Atom+Function  
  ----- ------------  ---------------      ----- ------------  ---------------
    50      1.850982  2 O  s                 11     -1.300208  1 C  pz         
    84      1.229949  2 O  f  2              51      1.072893  2 O  s          
     4     -1.010538  1 C  s                 27     -0.907148  1 C  d  2       
    91     -0.854281  2 O  f  2              60     -0.784712  2 O  pz         
    78      0.568980  2 O  d  2              30     -0.543268  1 C  d  0       

 Vector  129  Occ=0.000000D+00  E= 6.881399D+00  Symmetry=b1
              MO Center= -3.6D-17, -1.8D-15,  5.5D-01, r^2= 7.8D-01
   Bfn.  Coefficient  Atom+Function         Bfn.  Coefficient  Atom+Function  
  ----- ------------  ---------------      ----- ------------  ---------------
    83      1.306579  2 O  f  1              58      1.137850  2 O  px         
    77      0.730380  2 O  d  1              90     -0.714877  2 O  f  1       
    26      0.637650  1 C  d  1              37     -0.532935  1 C  f  1       
    12     -0.506844  1 C  px                21     -0.421199  1 C  d  1       
    55     -0.368362  2 O  px                44      0.318020  1 C  f  1       

 Vector  130  Occ=0.000000D+00  E= 6.980515D+00  Symmetry=a2
              MO Center= -6.1D-18,  3.1D-15,  6.3D-01, r^2= 4.6D-01
   Bfn.  Coefficient  Atom+Function         Bfn.  Coefficient  Atom+Function  
  ----- ------------  ---------------      ----- ------------  ---------------
    64      1.222929  2 O  d -2              69     -0.975084  2 O  d -2       
    41      0.415282  1 C  f -2              28     -0.367791  1 C  d -2       
   103      0.305914  3 H  px               126     -0.305914  4 H  px         
    87      0.258468  2 O  f -2             100      0.208456  3 H  px         
   123     -0.208456  4 H  px                74      0.206227  2 O  d -2       

 Vector  131  Occ=0.000000D+00  E= 6.993127D+00  Symmetry=a1
              MO Center= -2.5D-19, -1.7D-14,  6.1D-01, r^2= 6.3D-01
   Bfn.  Coefficient  Atom+Function         Bfn.  Coefficient  Atom+Function  
  ----- ------------  ---------------      ----- ------------  ---------------
    50      3.217528  2 O  s                 11     -2.085046  1 C  pz         
    51      1.704953  2 O  s                 60     -1.645943  2 O  pz         
    94     -1.227846  3 H  s                117     -1.227846  4 H  s          
    57     -1.075930  2 O  pz                68     -1.031755  2 O  d  2       
    25     -1.016999  1 C  d  0               5     -1.003638  1 C  s          

 Vector  132  Occ=0.000000D+00  E= 7.195329D+00  Symmetry=a1
              MO Center=  1.1D-18,  3.8D-15,  5.5D-01, r^2= 7.9D-01
   Bfn.  Coefficient  Atom+Function         Bfn.  Coefficient  Atom+Function  
  ----- ------------  ---------------      ----- ------------  ---------------
     4      3.740802  1 C  s                 14     -3.081416  1 C  pz         
    50      2.994369  2 O  s                 11     -2.690594  1 C  pz         
    95     -2.366461  3 H  s                118     -2.366461  4 H  s          
    94     -2.058596  3 H  s                117     -2.058596  4 H  s          
    51      1.863152  2 O  s                 57     -1.551577  2 O  pz         

 Vector  133  Occ=0.000000D+00  E= 7.307044D+00  Symmetry=b1
              MO Center= -1.2D-18,  6.5D-16,  6.6D-01, r^2= 5.3D-01
   Bfn.  Coefficient  Atom+Function         Bfn.  Coefficient  Atom+Function  
  ----- ------------  ---------------      ----- ------------  ---------------
    58      2.005606  2 O  px                72      1.705470  2 O  d  1       
    26      1.640160  1 C  d  1               9     -1.369109  1 C  px         
    67     -1.277563  2 O  d  1              55      0.651278  2 O  px         
    12     -0.593231  1 C  px                77      0.594278  2 O  d  1       
    90     -0.558225  2 O  f  1              44      0.503095  1 C  f  1       

 Vector  134  Occ=0.000000D+00  E= 7.470376D+00  Symmetry=b2
              MO Center=  1.3D-17, -3.2D-15,  4.2D-01, r^2= 1.1D+00
   Bfn.  Coefficient  Atom+Function         Bfn.  Coefficient  Atom+Function  
  ----- ------------  ---------------      ----- ------------  ---------------
    70     -1.827469  2 O  d -1              59      1.810196  2 O  py         
    35     -1.739087  1 C  f -1              10     -1.639626  1 C  py         
    56      1.556888  2 O  py                13     -1.427214  1 C  py         
    42     -1.235063  1 C  f -1              81      1.194041  2 O  f -1       
    95      1.019256  3 H  s                118     -1.019256  4 H  s          

 Vector  135  Occ=0.000000D+00  E= 7.497161D+00  Symmetry=a1
              MO Center=  4.6D-18,  3.6D-14,  6.2D-01, r^2= 6.0D-01
   Bfn.  Coefficient  Atom+Function         Bfn.  Coefficient  Atom+Function  
  ----- ------------  ---------------      ----- ------------  ---------------
    50      2.989659  2 O  s                 60     -2.724403  2 O  pz         
    11     -2.488878  1 C  pz                71      1.621897  2 O  d  0       
     4     -1.345328  1 C  s                 66     -1.236762  2 O  d  0       
    51      1.207582  2 O  s                 94     -1.070970  3 H  s          
   117     -1.070970  4 H  s                 14     -0.992828  1 C  pz         

 Vector  136  Occ=0.000000D+00  E= 7.546187D+00  Symmetry=b2
              MO Center=  5.5D-19, -3.9D-14,  4.8D-01, r^2= 7.6D-01
   Bfn.  Coefficient  Atom+Function         Bfn.  Coefficient  Atom+Function  
  ----- ------------  ---------------      ----- ------------  ---------------
    13      4.394373  1 C  py                95     -3.395065  3 H  s          
   118      3.395065  4 H  s                 59     -3.192406  2 O  py         
    24      2.309959  1 C  d -1              10      1.975363  1 C  py         
    70      1.288935  2 O  d -1              75      1.233264  2 O  d -1       
    65     -1.197765  2 O  d -1             105     -0.883337  3 H  pz         

 Vector  137  Occ=0.000000D+00  E= 1.470074D+01  Symmetry=a1
              MO Center=  6.5D-20,  3.1D-15,  3.9D-01, r^2= 9.5D-01
   Bfn.  Coefficient  Atom+Function         Bfn.  Coefficient  Atom+Function  
  ----- ------------  ---------------      ----- ------------  ---------------
     4      8.605840  1 C  s                 48     -7.159902  2 O  s          
    47     -4.501728  2 O  s                 25      3.801205  1 C  d  0       
    57      3.099830  2 O  pz                49      2.499640  2 O  s          
    94     -2.481020  3 H  s                117     -2.481020  4 H  s          
     3     -1.929797  1 C  s                 95     -1.921711  3 H  s          

 Vector  138  Occ=0.000000D+00  E= 1.627335D+01  Symmetry=a1
              MO Center= -4.0D-20, -3.3D-13, -5.6D-01, r^2= 1.4D+00
   Bfn.  Coefficient  Atom+Function         Bfn.  Coefficient  Atom+Function  
  ----- ------------  ---------------      ----- ------------  ---------------
     4     15.831006  1 C  s                  2     14.794539  1 C  s          
     1      8.035035  1 C  s                 94     -6.301945  3 H  s          
   117     -6.301945  4 H  s                 95     -6.175315  3 H  s          
   118     -6.175315  4 H  s                 60      5.407160  2 O  pz         
    50     -5.216393  2 O  s                101      3.124787  3 H  py         


   alpha - beta orbital overlaps 
   ----------------------------- 


   alpha      1      2      3      4      5      6      7      8      9     10
    beta      1      2      3      4      5      6      7     11      9     10
 overlap   1.000  1.000  0.989  0.983  0.760  0.991  0.976  0.735  0.979  0.998


   alpha     11     12     13     14     15     16     17     18     19     20
    beta     13     12      8     14     15     16     17     18     19     20
 overlap   0.968  0.988  0.986  0.985  0.987  0.998  0.956  0.995  0.963  1.000


   alpha     21     22     23     24     25     26     27     28     29     30
    beta     21     22     23     24     25     26     27     28     29     30
 overlap   0.984  0.985  0.992  0.986  0.993  0.995  0.998  1.000  0.998  0.998


   alpha     31     32     33     34     35     36     37     38     39     40
    beta     31     32     33     34     35     36     37     38     39     40
 overlap   0.999  0.958  0.995  0.996  0.995  0.997  0.998  0.994  0.985  0.997


   alpha     41     42     43     44     45     46     47     48     49     50
    beta     41     42     43     44     45     46     47     48     49     50
 overlap   0.998  0.996  0.985  0.992  0.999  0.998  0.997  0.998  0.996  0.998


   alpha     51     52     53     54     55     56     57     58     59     60
    beta     51     52     53     54     55     56     57     58     59     60
 overlap   0.990  0.996  0.999  0.996  0.999  0.964  0.998  0.998  0.980  0.997


   alpha     61     62     63     64     65     66     67     68     69     70
    beta     61     62     63     64     65     66     67     68     69     70
 overlap   0.998  0.997  0.997  1.000  0.999  0.998  0.999  0.998  0.995  0.999


   alpha     71     72     73     74     75     76     77     78     79     80
    beta     71     72     73     74     75     76     77     78     79     80
 overlap   0.999  1.000  0.985  0.980  0.999  1.000  1.000  0.990  0.999  0.999


   alpha     81     82     83     84     85     86     87     88     89     90
    beta     81     82     83     84     85     86     87     88     89     90
 overlap   0.995  0.998  0.995  0.999  0.999  0.994  0.996  0.994  0.996  0.999


   alpha     91     92     93     94     95     96     97     98     99    100
    beta     91     92     93     94     95     96     97     98     99    100
 overlap   0.999  1.000  1.000  1.000  1.000  0.999  1.000  1.000  0.998  0.999


   alpha    101    102    103    104    105    106    107    108    109    110
    beta    101    102    103    104    105    106    107    108    109    110
 overlap   0.995  0.999  0.991  0.997  1.000  0.988  0.997  0.999  0.999  1.000


   alpha    111    112    113    114    115    116    117    118    119    120
    beta    111    112    113    114    115    116    117    118    119    120
 overlap   1.000  1.000  0.994  0.994  0.997  0.994  1.000  1.000  0.998  1.000


   alpha    121    122    123    124    125    126    127    128    129    130
    beta    121    122    123    124    125    126    127    128    129    130
 overlap   1.000  0.999  1.000  0.945  1.000  0.944  1.000  0.999  1.000  1.000


   alpha    131    132    133    134    135    136    137    138
    beta    131    132    133    134    135    136    137    138
 overlap   0.986  0.985  1.000  0.934  0.997  0.934  1.000  1.000

     --------------------------
     Expectation value of S2:  
     --------------------------
      <S2> =      1.0617 (Exact =     0.0000)


 center of mass
 --------------
 x =   0.00000000 y =   0.00000000 z =   0.13860232

 moments of inertia (a.u.)
 ------------------
          52.862334133979           0.000000000000           0.000000000000
           0.000000000000          46.574047797659           0.000000000000
           0.000000000000           0.000000000000           6.288286336320

     Multipole analysis of the density
     ---------------------------------

     L   x y z        total         alpha         beta         nuclear
     -   - - -        -----         -----         ----         -------
     0   0 0 0     -0.000000     -8.000000     -8.000000     16.000000

     1   1 0 0     -0.000000     -0.000000     -0.000000      0.000000
     1   0 1 0     -0.000000     -0.000000      0.000000      0.000000
     1   0 0 1     -0.083208     -1.176219      1.093011      0.000000

     2   2 0 0    -32.826521     -3.591448    -29.235074      0.000000
     2   1 1 0      0.000000     -0.000000      0.000000      0.000000
     2   1 0 1     -0.000000     -0.000000     -0.000000      0.000000
     2   0 2 0    -13.519128     -6.639273    -13.119317      6.239463
     2   0 1 1      0.000000      0.000000      0.000000      0.000000
     2   0 0 2    -14.056556    -17.805613    -24.203583     27.952640


 Task  times  cpu:       26.3s     wall:       26.3s


                                NWChem Input Module
                                -------------------


 Summary of allocated global arrays
-----------------------------------
  No active global arrays


MA_summarize_allocated_blocks: starting scan ...
MA_summarize_allocated_blocks: scan completed: 0 heap blocks, 0 stack blocks
MA usage statistics:

	allocation statistics:
					      heap	     stack
					      ----	     -----
	current number of blocks	         0	         0
	maximum number of blocks	        19	        19
	current total bytes		         0	         0
	maximum total bytes		     80136	  30181928
	maximum total K-bytes		        81	     30182
	maximum total M-bytes		         1	        31


                                     CITATION
                                     --------
                Please cite the following reference when publishing
                           results obtained with NWChem:

          E. Apra, E. J. Bylaska, W. A. de Jong, N. Govind, K. Kowalski,
       T. P. Straatsma, M. Valiev, H. J. J. van Dam, Y. Alexeev, J. Anchell,
       V. Anisimov, F. W. Aquino, R. Atta-Fynn, J. Autschbach, N. P. Bauman,
     J. C. Becca, D. E. Bernholdt, K. Bhaskaran-Nair, S. Bogatko, P. Borowski,
         J. Boschen, J. Brabec, A. Bruner, E. Cauet, Y. Chen, G. N. Chuev,
      C. J. Cramer, J. Daily, M. J. O. Deegan, T. H. Dunning Jr., M. Dupuis,
   K. G. Dyall, G. I. Fann, S. A. Fischer, A. Fonari, H. Fruchtl, L. Gagliardi,
      J. Garza, N. Gawande, S. Ghosh, K. Glaesemann, A. W. Gotz, J. Hammond,
       V. Helms, E. D. Hermes, K. Hirao, S. Hirata, M. Jacquelin, L. Jensen,
   B. G. Johnson, H. Jonsson, R. A. Kendall, M. Klemm, R. Kobayashi, V. Konkov,
      S. Krishnamoorthy, M. Krishnan, Z. Lin, R. D. Lins, R. J. Littlefield,
      A. J. Logsdail, K. Lopata, W. Ma, A. V. Marenich, J. Martin del Campo,
   D. Mejia-Rodriguez, J. E. Moore, J. M. Mullin, T. Nakajima, D. R. Nascimento,
    J. A. Nichols, P. J. Nichols, J. Nieplocha, A. Otero-de-la-Roza, B. Palmer,
    A. Panyala, T. Pirojsirikul, B. Peng, R. Peverati, J. Pittner, L. Pollack,
   R. M. Richard, P. Sadayappan, G. C. Schatz, W. A. Shelton, D. W. Silverstein,
   D. M. A. Smith, T. A. Soares, D. Song, M. Swart, H. L. Taylor, G. S. Thomas,
            V. Tipparaju, D. G. Truhlar, K. Tsemekhman, T. Van Voorhis,
      A. Vazquez-Mayagoitia, P. Verma, O. Villa, A. Vishnu, K. D. Vogiatzis,
        D. Wang, J. H. Weare, M. J. Williamson, T. L. Windus, K. Wolinski,
        A. T. Wong, Q. Wu, C. Yang, Q. Yu, M. Zacharias, Z. Zhang, Y. Zhao,
                                and R. J. Harrison
                        "NWChem: Past, present, and future
                         J. Chem. Phys. 152, 184102 (2020)
                               doi:10.1063/5.0004997

                                      AUTHORS
                                      -------
  E. Apra, E. J. Bylaska, N. Govind, K. Kowalski, M. Valiev, D. Mejia-Rodriguez,
       A. Kunitsa, N. P. Bauman, A. Panyala, W. A. de Jong, T. P. Straatsma,
   H. J. J. van Dam, D. Wang, T. L. Windus, J. Hammond, J. Autschbach, A. Woods,
    K. Bhaskaran-Nair, J. Brabec, K. Lopata, S. A. Fischer, S. Krishnamoorthy,
     M. Jacquelin, W. Ma, M. Klemm, O. Villa, Y. Chen, V. Anisimov, F. Aquino,
     S. Hirata, M. T. Hackler, E. Hermes, L. Jensen, J. E. Moore, J. C. Becca,
      V. Konjkov, T. Risthaus, M. Malagoli, A. Marenich, A. Otero-de-la-Roza,
        J. Mullin, P. Nichols, R. Peverati, J. Pittner, Y. Zhao, P.-D. Fan,
        A. Fonari, M. J. Williamson, R. J. Harrison, J. R. Rehr, M. Dupuis,
     D. Silverstein, D. M. A. Smith, J. Nieplocha, V. Tipparaju, M. Krishnan,
     B. E. Van Kuiken, A. Vazquez-Mayagoitia, M. Swart, Q. Wu, T. Van Voorhis,
     A. A. Auer, M. Nooijen, L. D. Crosby, E. Brown, G. Cisneros, G. I. Fann,
   H. Fruchtl, J. Garza, K. Hirao, R. A. Kendall, J. A. Nichols, K. Tsemekhman,
    K. Wolinski, J. Anchell, D. E. Bernholdt, P. Borowski, T. Clark, D. Clerc,
   H. Dachsel, M. J. O. Deegan, K. Dyall, D. Elwood, E. Glendening, M. Gutowski,
   A. C. Hess, J. Jaffe, B. G. Johnson, J. Ju, R. Kobayashi, R. Kutteh, Z. Lin,
   R. Littlefield, X. Long, B. Meng, T. Nakajima, S. Niu, L. Pollack, M. Rosing,
   K. Glaesemann, G. Sandrone, M. Stave, H. Taylor, G. Thomas, J. H. van Lenthe,
                               A. T. Wong, Z. Zhang.

 Total times  cpu:       50.1s     wall:       50.1s
