 argument  1 = ri-tddft_pyridine.nw
  NWChem w/ OpenMP: maximum threads =    1
 


============================== echo of input deck ==============================
echo
start
title "RI-TDDFT/LDA geometry optimization of Pyridine with 6-31G"
geometry nocenter
 N     0.00000000    0.00000000    1.41599295
 C     0.00000000   -1.15372936    0.72067272
 C     0.00000000    1.15372936    0.72067272
 C     0.00000000   -1.20168790   -0.67391011
 C     0.00000000    1.20168790   -0.67391011
 C     0.00000000    0.00000000   -1.38406147
 H     0.00000000   -2.07614628    1.31521089
 H     0.00000000    2.07614628    1.31521089
 H     0.00000000    2.16719803   -1.19243296
 H     0.00000000   -2.16719803   -1.19243296
 H     0.00000000    0.00000000   -2.48042299
 symmetry c1
end
basis spherical
* library "6-31G"
end
basis "cd basis" spherical
* library "Weigend Coulomb Fitting"
end
driver
  clear
  maxiter 100
end
dft
  iterations 500
  xc slater 1.0 vwn_5 1.0
  grid xfine
  grid euler
  direct
end
tddft
  nroots 2
  algorithm 1
  notriplet
  target 1
  targetsym a
  civecs
  grad
    root 1
  end
end
task tddft optimize
================================================================================


                                         
                                         
 
 
             Northwest Computational Chemistry Package (NWChem) 7.0.1
             --------------------------------------------------------
 
 
                    Environmental Molecular Sciences Laboratory
                       Pacific Northwest National Laboratory
                                Richland, WA 99352
 
                              Copyright (c) 1994-2020
                       Pacific Northwest National Laboratory
                            Battelle Memorial Institute
 
             NWChem is an open-source computational chemistry package
                        distributed under the terms of the
                      Educational Community License (ECL) 2.0
             A copy of the license is included with this distribution
                              in the LICENSE.TXT file
 
                                  ACKNOWLEDGMENT
                                  --------------

            This software and its documentation were developed at the
            EMSL at Pacific Northwest National Laboratory, a multiprogram
            national laboratory, operated for the U.S. Department of Energy
            by Battelle under Contract Number DE-AC05-76RL01830. Support
            for this work was provided by the Department of Energy Office
            of Biological and Environmental Research, Office of Basic
            Energy Sciences, and the Office of Advanced Scientific Computing.


           Job information
           ---------------

    hostname        = dmejiar-VirtualBox
    program         = nwchem
    date            = Wed Jan 26 15:20:31 2022

    compiled        = Wed_Jan_26_14:40:18_2022
    source          = /home/dmejiar/Software/nwchem_intel_master
    nwchem branch   = 7.0.0
    nwchem revision = nwchem_on_git-3214-g926242d147
    ga revision     = 5.8.0
    use scalapack   = T
    input           = ri-tddft_pyridine.nw
    prefix          = ri-tddft_pyridine.
    data base       = ./ri-tddft_pyridine.db
    status          = startup
    nproc           =        2
    time left       =     -1s



           Memory information
           ------------------

    heap     =   26214400 doubles =    200.0 Mbytes
    stack    =   26214397 doubles =    200.0 Mbytes
    global   =   52428800 doubles =    400.0 Mbytes (distinct from heap & stack)
    total    =  104857597 doubles =    800.0 Mbytes
    verify   = yes
    hardfail = no 


           Directory information
           ---------------------
 
  0 permanent = .
  0 scratch   = .
 
 
 
 
                                NWChem Input Module
                                -------------------
 
 
             RI-TDDFT/LDA geometry optimization of Pyridine with 6-31G
             ---------------------------------------------------------

 Scaling coordinates for geometry "geometry" by  1.889725989
 (inverse scale =  0.529177249)

 Turning off AUTOSYM since
 SYMMETRY directive was detected!
 

          ------
          auto-z
          ------
  no constraints, skipping   0.000000000000000E+000
  no constraints, skipping   0.000000000000000E+000
 
 
                             Geometry "geometry" -> ""
                             -------------------------
 
 Output coordinates in angstroms (scale by  1.889725989 to convert to a.u.)
 
  No.       Tag          Charge          X              Y              Z
 ---- ---------------- ---------- -------------- -------------- --------------
    1 N                    7.0000     0.00000000     0.00000000     1.41599295
    2 C                    6.0000     0.00000000    -1.15372936     0.72067272
    3 C                    6.0000     0.00000000     1.15372936     0.72067272
    4 C                    6.0000     0.00000000    -1.20168790    -0.67391011
    5 C                    6.0000     0.00000000     1.20168790    -0.67391011
    6 C                    6.0000     0.00000000     0.00000000    -1.38406147
    7 H                    1.0000     0.00000000    -2.07614628     1.31521089
    8 H                    1.0000     0.00000000     2.07614628     1.31521089
    9 H                    1.0000     0.00000000     2.16719803    -1.19243296
   10 H                    1.0000     0.00000000    -2.16719803    -1.19243296
   11 H                    1.0000     0.00000000     0.00000000    -2.48042299
 
      Atomic Mass 
      ----------- 
 
      N                 14.003070
      C                 12.000000
      H                  1.007825
 

 Effective nuclear repulsion energy (a.u.)     205.2187467251

            Nuclear Dipole moment (a.u.) 
            ----------------------------
        X                 Y               Z
 ---------------- ---------------- ----------------
     0.0000000000     0.0000000000    -0.1249751007
 


                                Z-matrix (autoz)
                                -------- 

 Units are Angstrom for bonds and degrees for angles
 
      Type          Name      I     J     K     L     M      Value
      ----------- --------  ----- ----- ----- ----- ----- ----------
    1 Stretch                  1     2                       1.34706
    2 Stretch                  1     3                       1.34706
    3 Stretch                  2     4                       1.39541
    4 Stretch                  2     7                       1.09742
    5 Stretch                  3     5                       1.39541
    6 Stretch                  3     8                       1.09742
    7 Stretch                  4     6                       1.39584
    8 Stretch                  4    10                       1.09594
    9 Stretch                  5     6                       1.39584
   10 Stretch                  5     9                       1.09594
   11 Stretch                  6    11                       1.09636
   12 Bend                     1     2     4               123.04577
   13 Bend                     1     2     7               116.12026
   14 Bend                     1     3     5               123.04577
   15 Bend                     1     3     8               116.12026
   16 Bend                     2     1     3               117.84762
   17 Bend                     2     4     6               118.61188
   18 Bend                     2     4    10               120.20740
   19 Bend                     3     5     6               118.61188
   20 Bend                     3     5     9               120.20740
   21 Bend                     4     2     7               120.83398
   22 Bend                     4     6     5               118.83709
   23 Bend                     4     6    11               120.58146
   24 Bend                     5     3     8               120.83398
   25 Bend                     5     6    11               120.58146
   26 Bend                     6     4    10               121.18072
   27 Bend                     6     5     9               121.18072
   28 Torsion                  1     2     4     6           0.00000
   29 Torsion                  1     2     4    10         180.00000
   30 Torsion                  1     3     5     6           0.00000
   31 Torsion                  1     3     5     9         180.00000
   32 Torsion                  2     1     3     5           0.00000
   33 Torsion                  2     1     3     8         180.00000
   34 Torsion                  2     4     6     5           0.00000
   35 Torsion                  2     4     6    11         180.00000
   36 Torsion                  3     1     2     4           0.00000
   37 Torsion                  3     1     2     7         180.00000
   38 Torsion                  3     5     6     4           0.00000
   39 Torsion                  3     5     6    11         180.00000
   40 Torsion                  4     6     5     9         180.00000
   41 Torsion                  5     6     4    10         180.00000
   42 Torsion                  6     4     2     7         180.00000
   43 Torsion                  6     5     3     8         180.00000
   44 Torsion                  7     2     4    10           0.00000
   45 Torsion                  8     3     5     9           0.00000
   46 Torsion                  9     5     6    11           0.00000
   47 Torsion                 10     4     6    11           0.00000
 
 
            XYZ format geometry
            -------------------
    11
 geometry
 N                     0.00000000     0.00000000     1.41599295
 C                     0.00000000    -1.15372936     0.72067272
 C                     0.00000000     1.15372936     0.72067272
 C                     0.00000000    -1.20168790    -0.67391011
 C                     0.00000000     1.20168790    -0.67391011
 C                     0.00000000     0.00000000    -1.38406147
 H                     0.00000000    -2.07614628     1.31521089
 H                     0.00000000     2.07614628     1.31521089
 H                     0.00000000     2.16719803    -1.19243296
 H                     0.00000000    -2.16719803    -1.19243296
 H                     0.00000000     0.00000000    -2.48042299
 
 ==============================================================================
                                internuclear distances
 ------------------------------------------------------------------------------
       center one      |      center two      | atomic units |  angstroms
 ------------------------------------------------------------------------------
    2 C                |   1 N                |     2.54557  |     1.34706
    3 C                |   1 N                |     2.54557  |     1.34706
    4 C                |   2 C                |     2.63694  |     1.39541
    5 C                |   3 C                |     2.63694  |     1.39541
    6 C                |   4 C                |     2.63775  |     1.39584
    6 C                |   5 C                |     2.63775  |     1.39584
    7 H                |   2 C                |     2.07382  |     1.09742
    8 H                |   3 C                |     2.07382  |     1.09742
    9 H                |   5 C                |     2.07102  |     1.09594
   10 H                |   4 C                |     2.07102  |     1.09594
   11 H                |   6 C                |     2.07182  |     1.09636
 ------------------------------------------------------------------------------
                         number of included internuclear distances:         11
 ==============================================================================



 ==============================================================================
                                 internuclear angles
 ------------------------------------------------------------------------------
        center 1       |       center 2       |       center 3       |  degrees
 ------------------------------------------------------------------------------
    2 C                |   1 N                |   3 C                |   117.85
    1 N                |   2 C                |   4 C                |   123.05
    1 N                |   2 C                |   7 H                |   116.12
    4 C                |   2 C                |   7 H                |   120.83
    1 N                |   3 C                |   5 C                |   123.05
    1 N                |   3 C                |   8 H                |   116.12
    5 C                |   3 C                |   8 H                |   120.83
    2 C                |   4 C                |   6 C                |   118.61
    2 C                |   4 C                |  10 H                |   120.21
    6 C                |   4 C                |  10 H                |   121.18
    3 C                |   5 C                |   6 C                |   118.61
    3 C                |   5 C                |   9 H                |   120.21
    6 C                |   5 C                |   9 H                |   121.18
    4 C                |   6 C                |   5 C                |   118.84
    4 C                |   6 C                |  11 H                |   120.58
    5 C                |   6 C                |  11 H                |   120.58
 ------------------------------------------------------------------------------
                            number of included internuclear angles:         16
 ==============================================================================





 Summary of "ao basis" -> "" (spherical)
 ------------------------------------------------------------------------------
       Tag                 Description            Shells   Functions and Types
 ---------------- ------------------------------  ------  ---------------------
 *                           6-31G                    on all atoms 




 Summary of "cd basis" -> "" (spherical)
 ------------------------------------------------------------------------------
       Tag                 Description            Shells   Functions and Types
 ---------------- ------------------------------  ------  ---------------------
 *                  Weigend Coulomb Fitting           on all atoms 


 
  Deleted DRIVER restart files 
 
 tddft_input: filename not found; default name will be used
 
 
                           NWChem Geometry Optimization
                           ----------------------------
 
 
 
 
             RI-TDDFT/LDA geometry optimization of Pyridine with 6-31G
 
 
  no constraints, skipping   0.000000000000000E+000
 maximum gradient threshold         (gmax) =   0.000450
 rms gradient threshold             (grms) =   0.000300
 maximum cartesian step threshold   (xmax) =   0.001800
 rms cartesian step threshold       (xrms) =   0.001200
 fixed trust radius                (trust) =   0.300000
 maximum step size to saddle      (sadstp) =   0.100000
 energy precision                  (eprec) =   1.0D-07
 maximum number of steps          (nptopt) =  100
 initial hessian option           (inhess) =    0
 line search option               (linopt) =    1
 hessian update option            (modupd) =    1
 saddle point option              (modsad) =    0
 initial eigen-mode to follow     (moddir) =    0
 initial variable to follow       (vardir) =    0
 follow first negative mode     (firstneg) =    T
 apply conjugacy                    (opcg) =    F
 source of zmatrix                         =   autoz   


          -------------------
          Energy Minimization
          -------------------

 
 Names of Z-matrix variables 
    1              2              3              4              5         
    6              7              8              9             10         
   11             12             13             14             15         
   16             17             18             19             20         
   21             22             23             24             25         
   26             27             28             29             30         
   31             32             33             34             35         
   36             37             38             39             40         
   41             42             43             44             45         
   46             47         
 
 Variables with the same non-blank name are constrained to be equal
 
 
 Using diagonal initial Hessian 
 Scaling for Hessian diagonals: bonds = 1.00  angles = 0.25  torsions = 0.10

          --------
          Step   0
          --------
 
 
                         Geometry "geometry" -> "geometry"
                         ---------------------------------
 
 Output coordinates in angstroms (scale by  1.889725989 to convert to a.u.)
 
  No.       Tag          Charge          X              Y              Z
 ---- ---------------- ---------- -------------- -------------- --------------
    1 N                    7.0000     0.00000000     0.00000000     1.41599295
    2 C                    6.0000     0.00000000    -1.15372936     0.72067272
    3 C                    6.0000     0.00000000     1.15372936     0.72067272
    4 C                    6.0000     0.00000000    -1.20168790    -0.67391011
    5 C                    6.0000     0.00000000     1.20168790    -0.67391011
    6 C                    6.0000     0.00000000     0.00000000    -1.38406147
    7 H                    1.0000     0.00000000    -2.07614628     1.31521089
    8 H                    1.0000     0.00000000     2.07614628     1.31521089
    9 H                    1.0000     0.00000000     2.16719803    -1.19243296
   10 H                    1.0000     0.00000000    -2.16719803    -1.19243296
   11 H                    1.0000     0.00000000     0.00000000    -2.48042299
 
      Atomic Mass 
      ----------- 
 
      N                 14.003070
      C                 12.000000
      H                  1.007825
 

 Effective nuclear repulsion energy (a.u.)     205.2187467251

            Nuclear Dipole moment (a.u.) 
            ----------------------------
        X                 Y               Z
 ---------------- ---------------- ----------------
     0.0000000000     0.0000000000    -0.1249751007
 
 
                                 NWChem DFT Module
                                 -----------------
 
 
             RI-TDDFT/LDA geometry optimization of Pyridine with 6-31G
 
 
                      Basis "ao basis" -> "ao basis" (spherical)
                      -----
  N (Nitrogen)
  ------------
            Exponent  Coefficients 
       -------------- ---------------------------------------------------------
  1 S  4.17351100E+03  0.001835
  1 S  6.27457900E+02  0.013995
  1 S  1.42902100E+02  0.068587
  1 S  4.02343300E+01  0.232241
  1 S  1.28202100E+01  0.469070
  1 S  4.39043700E+00  0.360455
 
  2 S  1.16263580E+01 -0.114961
  2 S  2.71628000E+00 -0.169118
  2 S  7.72218000E-01  1.145852
 
  3 P  1.16263580E+01  0.067580
  3 P  2.71628000E+00  0.323907
  3 P  7.72218000E-01  0.740895
 
  4 S  2.12031300E-01  1.000000
 
  5 P  2.12031300E-01  1.000000
 
  C (Carbon)
  ----------
            Exponent  Coefficients 
       -------------- ---------------------------------------------------------
  1 S  3.04752490E+03  0.001835
  1 S  4.57369510E+02  0.014037
  1 S  1.03948690E+02  0.068843
  1 S  2.92101550E+01  0.232184
  1 S  9.28666300E+00  0.467941
  1 S  3.16392700E+00  0.362312
 
  2 S  7.86827240E+00 -0.119332
  2 S  1.88128850E+00 -0.160854
  2 S  5.44249300E-01  1.143456
 
  3 P  7.86827240E+00  0.068999
  3 P  1.88128850E+00  0.316424
  3 P  5.44249300E-01  0.744308
 
  4 S  1.68714400E-01  1.000000
 
  5 P  1.68714400E-01  1.000000
 
  H (Hydrogen)
  ------------
            Exponent  Coefficients 
       -------------- ---------------------------------------------------------
  1 S  1.87311370E+01  0.033495
  1 S  2.82539370E+00  0.234727
  1 S  6.40121700E-01  0.813757
 
  2 S  1.61277800E-01  1.000000
 


 Summary of "ao basis" -> "ao basis" (spherical)
 ------------------------------------------------------------------------------
       Tag                 Description            Shells   Functions and Types
 ---------------- ------------------------------  ------  ---------------------
 N                           6-31G                   5        9   3s2p
 C                           6-31G                   5        9   3s2p
 H                           6-31G                   2        2   2s


                      Basis "cd basis" -> "cd basis" (spherical)
                      -----
  N (Nitrogen)
  ------------
            Exponent  Coefficients 
       -------------- ---------------------------------------------------------
  1 S  2.54294018E+03  0.090467
  1 S  1.02954729E+03  0.145567
  1 S  4.24905355E+02  0.459409
  1 S  1.78457371E+02  1.139286
  1 S  7.61362742E+01  2.179589
  1 S  3.29338653E+01  2.760431
  1 S  1.44155436E+01  1.283745
 
  2 S  6.37188910E+00  1.000000
 
  3 S  2.83817420E+00  1.000000
 
  4 S  1.27117930E+00  1.000000
 
  5 S  5.71240700E-01  1.000000
 
  6 S  2.56988700E-01  1.000000
 
  7 P  1.78975990E+01 -0.033066
  7 P  6.53463190E+00  0.004158
 
  8 P  2.35236450E+00  1.000000
 
  9 P  8.39737700E-01  1.000000
 
 10 P  2.98933500E-01  1.000000
 
 11 D  7.69098700E+00  0.003582
 11 D  2.30449720E+00  0.018040
 
 12 D  8.40398700E-01  1.000000
 
 13 D  3.30379700E-01  1.000000
 
 14 F  2.33310760E+00  0.006725
 14 F  8.44613700E-01  0.005443
 
 15 G  1.40377000E+00  1.000000
 
  C (Carbon)
  ----------
            Exponent  Coefficients 
       -------------- ---------------------------------------------------------
  1 S  1.86109163E+03  0.074417
  1 S  6.42993976E+02  0.165396
  1 S  2.35110572E+02  0.557648
  1 S  9.07028894E+01  1.310830
  1 S  3.67794552E+01  2.169468
  1 S  1.56046273E+01  1.766885
  1 S  6.89072940E+00  0.293077
 
  2 S  3.14788500E+00  1.000000
 
  3 S  1.47772870E+00  1.000000
 
  4 S  7.07646600E-01  1.000000
 
  5 S  3.43012200E-01  1.000000
 
  6 S  1.66945300E-01  1.000000
 
  7 P  1.35472892E+01 -0.020648
  7 P  5.46694190E+00 -0.011528
 
  8 P  2.17517210E+00  1.000000
 
  9 P  8.58219400E-01  1.000000
 
 10 P  3.37672000E-01  1.000000
 
 11 D  5.92872530E+00 -0.022595
 11 D  1.98092090E+00 -0.047683
 
 12 D  8.05541700E-01  1.000000
 
 13 D  3.53124400E-01  1.000000
 
 14 F  1.67556260E+00  0.008880
 14 F  5.99753600E-01  0.006990
 
 15 G  1.00246000E+00  1.000000
 
  H (Hydrogen)
  ------------
            Exponent  Coefficients 
       -------------- ---------------------------------------------------------
  1 S  1.56752927E+01  0.018689
  1 S  3.60635780E+00  0.063167
  1 S  1.20800160E+00  0.120461
 
  2 S  4.72679400E-01  1.000000
 
  3 S  2.01810000E-01  1.000000
 
  4 P  2.02813650E+00  1.000000
  4 P  5.35873000E-01  1.000000
 
  5 D  2.21651240E+00  1.000000
 


 Summary of "cd basis" -> "cd basis" (spherical)
 ------------------------------------------------------------------------------
       Tag                 Description            Shells   Functions and Types
 ---------------- ------------------------------  ------  ---------------------
 N                  Weigend Coulomb Fitting         15       49   6s4p3d1f1g
 C                  Weigend Coulomb Fitting         15       49   6s4p3d1f1g
 H                  Weigend Coulomb Fitting          5       11   3s1p1d




 Summary of "ao basis" -> "ao basis" (spherical)
 ------------------------------------------------------------------------------
       Tag                 Description            Shells   Functions and Types
 ---------------- ------------------------------  ------  ---------------------
 N                           6-31G                   5        9   3s2p
 C                           6-31G                   5        9   3s2p
 H                           6-31G                   2        2   2s


  Caching 1-el integrals 
 
            General Information
            -------------------
          SCF calculation type: DFT
          Wavefunction type:  closed shell.
          No. of atoms     :    11
          No. of electrons :    42
           Alpha electrons :    21
            Beta electrons :    21
          Charge           :     0
          Spin multiplicity:     1
          Use of symmetry is: off; symmetry adaption is: off
          Maximum number of iterations: 500
          This is a Direct SCF calculation.
          AO basis - number of functions:    64
                     number of shells:    40
          A Charge density fitting basis will be used.
          CD basis - number of functions:   349
                     number of shells:   115
          Convergence on energy requested:  1.00D-06
          Convergence on density requested:  1.00D-05
          Convergence on gradient requested:  5.00D-04
 
              XC Information
              --------------
                        Slater Exchange Functional  1.000 local    
                      VWN V Correlation Functional  1.000 local    
 
             Grid Information
             ----------------
          Grid used for XC integration:  xfine     
          Radial quadrature: Euler-MacLaurin     
          Angular quadrature: Lebedev. 
          Tag              B.-S. Rad. Rad. Pts. Rad. Cut. Ang. Pts.
          ---              ---------- --------- --------- ---------
          N                   0.65       80          11.0      1454
          C                   0.70       80          11.0      1454
          H                   0.35       86          12.0      1202
          Grid pruning is: on 
          Number of quadrature shells:   910
          Spatial weights used:  Erf1
 
          Convergence Information
          -----------------------
          Convergence aids based upon iterative change in 
          total energy or number of iterations. 
          Levelshifting, if invoked, occurs when the 
          HOMO/LUMO gap drops below (HL_TOL):  1.00D-02
          DIIS, if invoked, will attempt to extrapolate 
          using up to (NFOCK): 10 stored Fock matrices.

                    Damping( 0%)  Levelshifting(0.5)       DIIS
                  --------------- ------------------- ---------------
          dE  on:    start            ASAP                start   
          dE off:    2 iters        500 iters           500 iters 

 
      Screening Tolerance Information
      -------------------------------
          Density screening/tol_rho:  1.00D-10
          AO Gaussian exp screening on grid/accAOfunc:  14
          CD Gaussian exp screening on grid/accCDfunc:  20
          XC Gaussian exp screening on grid/accXCfunc:  20
          Schwarz screening/accCoul:  1.00D-08

 
      Superposition of Atomic Density Guess
      -------------------------------------
 
 Sum of atomic energies:        -245.08617168
 
      Non-variational initial energy
      ------------------------------

 Total energy =    -248.972636
 1-e energy   =    -735.912951
 2-e energy   =     281.721569
 HOMO         =      -0.278286
 LUMO         =      -0.013520
 
   Time after variat. SCF:      0.4
 
      3 Center 2 Electron Integral Information
      ----------------------------------------
          Maximum number of 3-center 2e- integrals is:         1429504.
            This is reduced with Schwarz screening to:          790834.
            Incore requires a per proc buffer size of:          410774.
          Minimum dble words available (all nodes) is:        52414604
                   This is reduced (for later use) to:        52045579
                      proc 0 Suggested buffer size is:          410774
                         Max Suggested buffer size is:          410774
                              no. integral batches is:            1000

          Incore memory use for 3-center 2e- integrals is turned off. 
   Time prior to 1st pass:      0.4

 Grid_pts file          = ./ri-tddft_pyridine.gridpts.0
 Record size in doubles =  12289        No. of grid_pts per rec  =   3070
 Max. records in memory =    238        Max. recs in file   =    103747


           Memory utilization after 1st SCF pass: 
           Heap Space remaining (MW):       23.28            23276064
          Stack Space remaining (MW):       26.21            26213692

   convergence    iter        energy       DeltaE   RMS-Dens  Diis-err    time
 ---------------- ----- ----------------- --------- --------- ---------  ------
 d= 0,ls=0.0,diis     1   -245.9063975501 -4.51D+02  2.43D-02  8.65D-01     2.1
 d= 0,ls=0.0,diis     2   -245.8627615082  4.36D-02  1.96D-02  9.91D-01     3.2
 d= 0,ls=0.0,diis     3   -245.9294633126 -6.67D-02  8.47D-03  5.03D-01     4.3
 d= 0,ls=0.0,diis     4   -245.9828931973 -5.34D-02  3.40D-03  3.62D-02     5.4
 d= 0,ls=0.0,diis     5   -245.9872955084 -4.40D-03  1.25D-03  6.40D-03     6.5
  Resetting Diis
 d= 0,ls=0.0,diis     6   -245.9882813416 -9.86D-04  3.11D-04  3.41D-04     7.6
 d= 0,ls=0.0,diis     7   -245.9883301678 -4.88D-05  1.22D-04  3.85D-06     8.8
 d= 0,ls=0.0,diis     8   -245.9883268898  3.28D-06  6.95D-05  2.76D-05    10.0
 d= 0,ls=0.0,diis     9   -245.9883308869 -4.00D-06  9.87D-06  2.85D-07    11.3
 d= 0,ls=0.0,diis    10   -245.9883309200 -3.32D-08  4.46D-06  7.49D-08    12.4


         Total DFT energy =     -245.988330920015
      One electron energy =     -739.809438195127
           Coulomb energy =      322.188916555806
    Exchange-Corr. energy =      -33.586556005756
 Nuclear repulsion energy =      205.218746725062

 Numeric. integr. density =       42.000000203149

     Total iterative time =     12.0s


 
                       DFT Final Molecular Orbital Analysis
                       ------------------------------------
 
 Vector    1  Occ=2.000000D+00  E=-1.386629D+01
              MO Center= -2.2D-12, -8.3D-13,  1.4D+00, r^2= 2.0D-02
   Bfn.  Coefficient  Atom+Function         Bfn.  Coefficient  Atom+Function  
  ----- ------------  ---------------      ----- ------------  ---------------
     1      0.994560   1 N  s                 6     -0.047117   1 N  s         
     2      0.041209   1 N  s         
 
 Vector    2  Occ=2.000000D+00  E=-9.818434D+00
              MO Center= -3.5D-13, -2.5D-05,  7.2D-01, r^2= 1.4D+00
   Bfn.  Coefficient  Atom+Function         Bfn.  Coefficient  Atom+Function  
  ----- ------------  ---------------      ----- ------------  ---------------
    10      0.702922   2 C  s                19     -0.702907   3 C  s         
    11      0.031416   2 C  s                20     -0.031415   3 C  s         
 
 Vector    3  Occ=2.000000D+00  E=-9.818421D+00
              MO Center= -9.3D-14,  2.5D-05,  7.2D-01, r^2= 1.4D+00
   Bfn.  Coefficient  Atom+Function         Bfn.  Coefficient  Atom+Function  
  ----- ------------  ---------------      ----- ------------  ---------------
    10      0.702690   2 C  s                19      0.702705   3 C  s         
    11      0.029744   2 C  s                20      0.029744   3 C  s         
 
 Vector    4  Occ=2.000000D+00  E=-9.806502D+00
              MO Center= -2.4D-13,  1.8D-11, -1.4D+00, r^2= 2.9D-02
   Bfn.  Coefficient  Atom+Function         Bfn.  Coefficient  Atom+Function  
  ----- ------------  ---------------      ----- ------------  ---------------
    46      0.993904   6 C  s                47      0.044336   6 C  s         
    51     -0.041713   6 C  s         
 
 Vector    5  Occ=2.000000D+00  E=-9.798533D+00
              MO Center= -5.0D-13,  1.7D-04, -6.7D-01, r^2= 1.5D+00
   Bfn.  Coefficient  Atom+Function         Bfn.  Coefficient  Atom+Function  
  ----- ------------  ---------------      ----- ------------  ---------------
    28      0.702754   4 C  s                37      0.702850   5 C  s         
    33     -0.035757   4 C  s                42     -0.035761   5 C  s         
    29      0.031699   4 C  s                38      0.031703   5 C  s         
    51      0.026361   6 C  s         
 
 Vector    6  Occ=2.000000D+00  E=-9.798526D+00
              MO Center= -4.5D-13, -1.7D-04, -6.7D-01, r^2= 1.5D+00
   Bfn.  Coefficient  Atom+Function         Bfn.  Coefficient  Atom+Function  
  ----- ------------  ---------------      ----- ------------  ---------------
    28      0.702962   4 C  s                37     -0.702865   5 C  s         
    29      0.031595   4 C  s                38     -0.031591   5 C  s         
    33     -0.027095   4 C  s                42      0.027090   5 C  s         
 
 Vector    7  Occ=2.000000D+00  E=-8.704118D-01
              MO Center=  1.1D-10, -1.5D-09,  8.0D-01, r^2= 1.2D+00
   Bfn.  Coefficient  Atom+Function         Bfn.  Coefficient  Atom+Function  
  ----- ------------  ---------------      ----- ------------  ---------------
     6      0.350719   1 N  s                 2      0.315129   1 N  s         
    11      0.186944   2 C  s                20      0.186944   3 C  s         
     1     -0.158305   1 N  s                 5     -0.145546   1 N  pz        
    13      0.109997   2 C  py               22     -0.109997   3 C  py        
    10     -0.098670   2 C  s                19     -0.098670   3 C  s         
 
 Vector    8  Occ=2.000000D+00  E=-7.334310D-01
              MO Center= -5.0D-10,  8.1D-09, -6.1D-01, r^2= 2.0D+00
   Bfn.  Coefficient  Atom+Function         Bfn.  Coefficient  Atom+Function  
  ----- ------------  ---------------      ----- ------------  ---------------
    47      0.282299   6 C  s                 6     -0.230337   1 N  s         
    51      0.226725   6 C  s                29      0.203539   4 C  s         
    38      0.203539   5 C  s                 2     -0.183071   1 N  s         
    46     -0.148982   6 C  s                33      0.121329   4 C  s         
    42      0.121329   5 C  s                28     -0.107098   4 C  s         
 
 Vector    9  Occ=2.000000D+00  E=-6.936866D-01
              MO Center=  7.1D-12, -4.7D-09,  1.4D-01, r^2= 2.7D+00
   Bfn.  Coefficient  Atom+Function         Bfn.  Coefficient  Atom+Function  
  ----- ------------  ---------------      ----- ------------  ---------------
    11      0.239717   2 C  s                20     -0.239717   3 C  s         
    29      0.210948   4 C  s                38     -0.210948   5 C  s         
    15      0.181217   2 C  s                24     -0.181217   3 C  s         
     4     -0.155638   1 N  py               33      0.149361   4 C  s         
    42     -0.149361   5 C  s                10     -0.120466   2 C  s         
 
 Vector   10  Occ=2.000000D+00  E=-5.733109D-01
              MO Center=  4.1D-10,  3.3D-09,  1.2D-01, r^2= 3.3D+00
   Bfn.  Coefficient  Atom+Function         Bfn.  Coefficient  Atom+Function  
  ----- ------------  ---------------      ----- ------------  ---------------
     4      0.274886   1 N  py               49     -0.194893   6 C  py        
    29      0.187918   4 C  s                38     -0.187918   5 C  s         
    11     -0.165866   2 C  s                20      0.165867   3 C  s         
    33      0.160281   4 C  s                42     -0.160281   5 C  s         
    14     -0.157859   2 C  pz               23      0.157859   3 C  pz        
 
 Vector   11  Occ=2.000000D+00  E=-5.687525D-01
              MO Center=  4.2D-11, -1.3D-09, -3.3D-01, r^2= 3.3D+00
   Bfn.  Coefficient  Atom+Function         Bfn.  Coefficient  Atom+Function  
  ----- ------------  ---------------      ----- ------------  ---------------
    47      0.232367   6 C  s                 6      0.175144   1 N  s         
    32     -0.164073   4 C  pz               41     -0.164073   5 C  pz        
    51      0.163226   6 C  s                 2      0.148878   1 N  s         
    15     -0.149346   2 C  s                24     -0.149346   3 C  s         
    11     -0.140341   2 C  s                20     -0.140341   3 C  s         
 
 Vector   12  Occ=2.000000D+00  E=-4.814168D-01
              MO Center= -7.2D-10,  5.1D-09, -3.6D-01, r^2= 3.9D+00
   Bfn.  Coefficient  Atom+Function         Bfn.  Coefficient  Atom+Function  
  ----- ------------  ---------------      ----- ------------  ---------------
    50      0.254550   6 C  pz               31      0.170281   4 C  py        
    40     -0.170281   5 C  py               14     -0.143924   2 C  pz        
    23     -0.143924   3 C  pz               13      0.143111   2 C  py        
    22     -0.143111   3 C  py               63     -0.141098  11 H  s         
    54      0.116599   6 C  pz               32      0.109437   4 C  pz        
 
 Vector   13  Occ=2.000000D+00  E=-4.400481D-01
              MO Center= -3.8D-11,  9.2D-09, -5.5D-02, r^2= 2.7D+00
   Bfn.  Coefficient  Atom+Function         Bfn.  Coefficient  Atom+Function  
  ----- ------------  ---------------      ----- ------------  ---------------
     4      0.288423   1 N  py               49      0.274752   6 C  py        
    32      0.244533   4 C  pz               41     -0.244533   5 C  pz        
    14     -0.212337   2 C  pz               23      0.212337   3 C  pz        
    13     -0.180274   2 C  py               22     -0.180274   3 C  py        
    31     -0.112223   4 C  py               40     -0.112223   5 C  py        
 
 Vector   14  Occ=2.000000D+00  E=-4.187069D-01
              MO Center=  8.0D-10, -1.4D-08, -2.1D-01, r^2= 4.8D+00
   Bfn.  Coefficient  Atom+Function         Bfn.  Coefficient  Atom+Function  
  ----- ------------  ---------------      ----- ------------  ---------------
    31     -0.196777   4 C  py               40      0.196777   5 C  py        
     6      0.179303   1 N  s                59      0.175883   9 H  s         
    61      0.175883  10 H  s                51     -0.169115   6 C  s         
    13      0.154141   2 C  py               22     -0.154141   3 C  py        
    55     -0.141224   7 H  s                57     -0.141224   8 H  s         
 
 Vector   15  Occ=2.000000D+00  E=-3.892905D-01
              MO Center=  6.5D-11, -1.9D-08, -5.5D-03, r^2= 4.0D+00
   Bfn.  Coefficient  Atom+Function         Bfn.  Coefficient  Atom+Function  
  ----- ------------  ---------------      ----- ------------  ---------------
    31      0.222857   4 C  py               40      0.222857   5 C  py        
    13      0.201284   2 C  py               22      0.201284   3 C  py        
    14     -0.192396   2 C  pz               23      0.192396   3 C  pz        
    32      0.173074   4 C  pz               41     -0.173074   5 C  pz        
    59      0.143390   9 H  s                61     -0.143390  10 H  s         
 
 Vector   16  Occ=2.000000D+00  E=-3.658688D-01
              MO Center=  2.0D-10,  1.5D-09,  3.3D-01, r^2= 2.6D+00
   Bfn.  Coefficient  Atom+Function         Bfn.  Coefficient  Atom+Function  
  ----- ------------  ---------------      ----- ------------  ---------------
     3      0.304065   1 N  px               12      0.243534   2 C  px        
    21      0.243534   3 C  px               30      0.190964   4 C  px        
    39      0.190964   5 C  px               48      0.180646   6 C  px        
     7      0.170752   1 N  px               16      0.141167   2 C  px        
    25      0.141167   3 C  px               52      0.104396   6 C  px        
 
 Vector   17  Occ=2.000000D+00  E=-3.587474D-01
              MO Center=  6.8D-10,  3.9D-09, -8.2D-01, r^2= 3.3D+00
   Bfn.  Coefficient  Atom+Function         Bfn.  Coefficient  Atom+Function  
  ----- ------------  ---------------      ----- ------------  ---------------
    50      0.377454   6 C  pz               63     -0.244543  11 H  s         
    64     -0.242643  11 H  s                14      0.185624   2 C  pz        
    23      0.185624   3 C  pz               32     -0.183999   4 C  pz        
    41     -0.183999   5 C  pz                5      0.165720   1 N  pz        
    33      0.133521   4 C  s                42      0.133521   5 C  s         
 
 Vector   18  Occ=2.000000D+00  E=-3.235346D-01
              MO Center= -3.9D-10,  1.3D-08, -4.7D-02, r^2= 4.2D+00
   Bfn.  Coefficient  Atom+Function         Bfn.  Coefficient  Atom+Function  
  ----- ------------  ---------------      ----- ------------  ---------------
    49      0.289446   6 C  py               31     -0.246392   4 C  py        
    40     -0.246392   5 C  py               13      0.229351   2 C  py        
    22      0.229351   3 C  py                4     -0.227225   1 N  py        
    55     -0.156538   7 H  s                57      0.156538   8 H  s         
    56     -0.153514   7 H  s                58      0.153514   8 H  s         
 
 Vector   19  Occ=2.000000D+00  E=-2.668865D-01
              MO Center=  1.1D-09, -5.3D-10, -2.1D-01, r^2= 2.8D+00
   Bfn.  Coefficient  Atom+Function         Bfn.  Coefficient  Atom+Function  
  ----- ------------  ---------------      ----- ------------  ---------------
    48     -0.363352   6 C  px                3      0.349929   1 N  px        
    52     -0.238796   6 C  px                7      0.232055   1 N  px        
    30     -0.208927   4 C  px               39     -0.208927   5 C  px        
    34     -0.144423   4 C  px               43     -0.144423   5 C  px        
    12      0.124154   2 C  px               21      0.124154   3 C  px        
 
 Vector   20  Occ=2.000000D+00  E=-2.473874D-01
              MO Center= -6.3D-10, -3.1D-09,  3.0D-02, r^2= 2.9D+00
   Bfn.  Coefficient  Atom+Function         Bfn.  Coefficient  Atom+Function  
  ----- ------------  ---------------      ----- ------------  ---------------
    12      0.310927   2 C  px               21     -0.310927   3 C  px        
    30      0.299342   4 C  px               39     -0.299342   5 C  px        
    34      0.210128   4 C  px               43     -0.210128   5 C  px        
    16      0.204797   2 C  px               25     -0.204797   3 C  px        
 
 Vector   21  Occ=2.000000D+00  E=-1.978340D-01
              MO Center= -2.8D-10, -3.8D-09,  1.3D+00, r^2= 2.0D+00
   Bfn.  Coefficient  Atom+Function         Bfn.  Coefficient  Atom+Function  
  ----- ------------  ---------------      ----- ------------  ---------------
     5      0.511036   1 N  pz                9      0.351418   1 N  pz        
     6      0.278235   1 N  s                33      0.216376   4 C  s         
    42      0.216376   5 C  s                 2      0.170438   1 N  s         
    32      0.170619   4 C  pz               41      0.170619   5 C  pz        
    36      0.166315   4 C  pz               45      0.166315   5 C  pz        
 
 Vector   22  Occ=0.000000D+00  E=-6.106781D-02
              MO Center=  1.3D-10,  2.9D-09, -2.7D-02, r^2= 3.1D+00
   Bfn.  Coefficient  Atom+Function         Bfn.  Coefficient  Atom+Function  
  ----- ------------  ---------------      ----- ------------  ---------------
    52      0.480140   6 C  px                7      0.408735   1 N  px        
     3      0.394516   1 N  px               48      0.391640   6 C  px        
    34     -0.229299   4 C  px               43     -0.229299   5 C  px        
    16     -0.221633   2 C  px               25     -0.221633   3 C  px        
    12     -0.216374   2 C  px               21     -0.216374   3 C  px        
 
 Vector   23  Occ=0.000000D+00  E=-4.970784D-02
              MO Center=  8.3D-10,  1.8D-09,  1.4D-02, r^2= 3.2D+00
   Bfn.  Coefficient  Atom+Function         Bfn.  Coefficient  Atom+Function  
  ----- ------------  ---------------      ----- ------------  ---------------
    34     -0.412901   4 C  px               43      0.412901   5 C  px        
    16      0.403225   2 C  px               25     -0.403225   3 C  px        
    12      0.343217   2 C  px               21     -0.343217   3 C  px        
    30     -0.332816   4 C  px               39      0.332816   5 C  px        
 
 Vector   24  Occ=0.000000D+00  E= 5.885571D-02
              MO Center=  2.7D-10,  2.0D-07, -1.2D+00, r^2= 6.8D+00
   Bfn.  Coefficient  Atom+Function         Bfn.  Coefficient  Atom+Function  
  ----- ------------  ---------------      ----- ------------  ---------------
    64      1.084498  11 H  s                60      0.882665   9 H  s         
    62      0.882665  10 H  s                51     -0.723610   6 C  s         
    33     -0.602970   4 C  s                42     -0.602970   5 C  s         
    56      0.525772   7 H  s                58      0.525772   8 H  s         
    54      0.461109   6 C  pz               15     -0.315611   2 C  s         
 
 Vector   25  Occ=0.000000D+00  E= 8.927377D-02
              MO Center= -4.4D-10, -2.4D-09, -4.2D-02, r^2= 3.3D+00
   Bfn.  Coefficient  Atom+Function         Bfn.  Coefficient  Atom+Function  
  ----- ------------  ---------------      ----- ------------  ---------------
    34      0.507764   4 C  px               43      0.507764   5 C  px        
    52     -0.510237   6 C  px               16     -0.458439   2 C  px        
    25     -0.458439   3 C  px                7      0.409398   1 N  px        
     3      0.327003   1 N  px               30      0.319924   4 C  px        
    39      0.319924   5 C  px               48     -0.309203   6 C  px        
 
 Vector   26  Occ=0.000000D+00  E= 1.011617D-01
              MO Center= -2.8D-10, -2.4D-07, -2.3D-01, r^2= 8.5D+00
   Bfn.  Coefficient  Atom+Function         Bfn.  Coefficient  Atom+Function  
  ----- ------------  ---------------      ----- ------------  ---------------
    60      1.141896   9 H  s                62     -1.141896  10 H  s         
    56     -0.880696   7 H  s                58      0.880696   8 H  s         
    33      0.869210   4 C  s                42     -0.869210   5 C  s         
    15      0.510771   2 C  s                24     -0.510771   3 C  s         
    35     -0.471850   4 C  py               44     -0.471850   5 C  py        
 
 Vector   27  Occ=0.000000D+00  E= 1.190258D-01
              MO Center= -9.1D-10, -7.6D-07,  1.3D-01, r^2= 8.4D+00
   Bfn.  Coefficient  Atom+Function         Bfn.  Coefficient  Atom+Function  
  ----- ------------  ---------------      ----- ------------  ---------------
    51      1.562681   6 C  s                56      1.162805   7 H  s         
    58      1.162804   8 H  s                15     -1.118205   2 C  s         
    24     -1.118205   3 C  s                64     -1.112825  11 H  s         
     6      0.561131   1 N  s                18     -0.417376   2 C  pz        
    27     -0.417376   3 C  pz               54     -0.367238   6 C  pz        
 
 Vector   28  Occ=0.000000D+00  E= 1.426942D-01
              MO Center= -9.8D-10, -4.9D-05, -1.1D+00, r^2= 7.8D+00
   Bfn.  Coefficient  Atom+Function         Bfn.  Coefficient  Atom+Function  
  ----- ------------  ---------------      ----- ------------  ---------------
    60      1.260678   9 H  s                62      1.260705  10 H  s         
    64     -1.258984  11 H  s                51      0.857948   6 C  s         
    54     -0.830155   6 C  pz               56     -0.751785   7 H  s         
    58     -0.751751   8 H  s                35      0.692253   4 C  py        
    44     -0.692240   5 C  py               17     -0.625715   2 C  py        
 
 Vector   29  Occ=0.000000D+00  E= 1.429957D-01
              MO Center=  1.9D-10,  5.0D-05,  2.6D-01, r^2= 8.3D+00
   Bfn.  Coefficient  Atom+Function         Bfn.  Coefficient  Atom+Function  
  ----- ------------  ---------------      ----- ------------  ---------------
    33      1.378520   4 C  s                42     -1.378539   5 C  s         
    15     -1.223232   2 C  s                24      1.223233   3 C  s         
    56      1.132247   7 H  s                58     -1.132270   8 H  s         
    60      0.907809   9 H  s                62     -0.907771  10 H  s         
    17      0.615536   2 C  py               26      0.615555   3 C  py        
 
 Vector   30  Occ=0.000000D+00  E= 1.923598D-01
              MO Center= -8.9D-10,  1.2D-08,  8.5D-02, r^2= 4.9D+00
   Bfn.  Coefficient  Atom+Function         Bfn.  Coefficient  Atom+Function  
  ----- ------------  ---------------      ----- ------------  ---------------
     6      2.248285   1 N  s                54      1.254784   6 C  pz        
    64      1.059545  11 H  s                51      1.027576   6 C  s         
    17     -0.976208   2 C  py               26      0.976208   3 C  py        
    15     -0.881674   2 C  s                24     -0.881675   3 C  s         
     9     -0.801711   1 N  pz               33     -0.750858   4 C  s         
 
 Vector   31  Occ=0.000000D+00  E= 2.500298D-01
              MO Center= -7.8D-10,  9.6D-08, -5.9D-01, r^2= 5.0D+00
   Bfn.  Coefficient  Atom+Function         Bfn.  Coefficient  Atom+Function  
  ----- ------------  ---------------      ----- ------------  ---------------
    33      2.443207   4 C  s                42     -2.443207   5 C  s         
    53      1.893022   6 C  py               18      1.369594   2 C  pz        
    27     -1.369594   3 C  pz               35      1.148956   4 C  py        
    44      1.148956   5 C  py               56     -0.777597   7 H  s         
    58      0.777597   8 H  s                 8      0.581686   1 N  py        
 
 Vector   32  Occ=0.000000D+00  E= 2.732495D-01
              MO Center= -6.3D-10, -7.1D-07,  2.2D-01, r^2= 4.2D+00
   Bfn.  Coefficient  Atom+Function         Bfn.  Coefficient  Atom+Function  
  ----- ------------  ---------------      ----- ------------  ---------------
    15      2.274594   2 C  s                24     -2.274592   3 C  s         
    36     -1.479847   4 C  pz               45      1.479844   5 C  pz        
     8      1.203401   1 N  py               17      0.981953   2 C  py        
    26      0.981954   3 C  py               53      0.958281   6 C  py        
    60      0.580653   9 H  s                62     -0.580652  10 H  s         
 
 Vector   33  Occ=0.000000D+00  E= 2.754864D-01
              MO Center=  3.8D-10,  6.4D-07, -2.9D-01, r^2= 4.8D+00
   Bfn.  Coefficient  Atom+Function         Bfn.  Coefficient  Atom+Function  
  ----- ------------  ---------------      ----- ------------  ---------------
    51      2.662351   6 C  s                 6     -1.748318   1 N  s         
    36      1.428472   4 C  pz               45      1.428474   5 C  pz        
    18      1.267983   2 C  pz               27      1.267984   3 C  pz        
    35     -1.155873   4 C  py               44      1.155873   5 C  py        
    17      0.819299   2 C  py               26     -0.819298   3 C  py        
 
 Vector   34  Occ=0.000000D+00  E= 4.118836D-01
              MO Center=  1.4D-08,  4.8D-07, -3.7D-02, r^2= 3.8D+00
   Bfn.  Coefficient  Atom+Function         Bfn.  Coefficient  Atom+Function  
  ----- ------------  ---------------      ----- ------------  ---------------
    51     -3.800269   6 C  s                33      3.516782   4 C  s         
    42      3.516782   5 C  s                15     -2.946648   2 C  s         
    24     -2.946649   3 C  s                54     -2.746533   6 C  pz        
    35      2.409020   4 C  py               44     -2.409017   5 C  py        
     6      1.863148   1 N  s                18      1.425846   2 C  pz        
 
 Vector   35  Occ=0.000000D+00  E= 4.219146D-01
              MO Center= -5.8D-10, -5.9D-07,  2.1D-01, r^2= 5.6D+00
   Bfn.  Coefficient  Atom+Function         Bfn.  Coefficient  Atom+Function  
  ----- ------------  ---------------      ----- ------------  ---------------
    53      2.626669   6 C  py               18     -2.209806   2 C  pz        
    27      2.209803   3 C  pz               36     -1.659931   4 C  pz        
    45      1.659929   5 C  pz                8     -1.334752   1 N  py        
    17     -1.285583   2 C  py               26     -1.285585   3 C  py        
    35      0.965211   4 C  py               44      0.965215   5 C  py        
 
 Vector   36  Occ=0.000000D+00  E= 4.536315D-01
              MO Center= -2.8D-10, -2.1D-10, -1.7D-01, r^2= 3.5D+00
   Bfn.  Coefficient  Atom+Function         Bfn.  Coefficient  Atom+Function  
  ----- ------------  ---------------      ----- ------------  ---------------
    12      0.481927   2 C  px               21      0.481927   3 C  px        
    48      0.457755   6 C  px               16     -0.442903   2 C  px        
    25     -0.442903   3 C  px               30      0.444250   4 C  px        
    39      0.444250   5 C  px               52     -0.355572   6 C  px        
    34     -0.283288   4 C  px               43     -0.283288   5 C  px        
 
 Vector   37  Occ=0.000000D+00  E= 4.865220D-01
              MO Center= -3.0D-09,  1.4D-07, -3.0D-01, r^2= 4.3D+00
   Bfn.  Coefficient  Atom+Function         Bfn.  Coefficient  Atom+Function  
  ----- ------------  ---------------      ----- ------------  ---------------
    36      1.853520   4 C  pz               45     -1.853520   5 C  pz        
     8      1.280284   1 N  py               53     -1.279857   6 C  py        
    18      1.187421   2 C  pz               27     -1.187421   3 C  pz        
    35     -1.134395   4 C  py               44     -1.134396   5 C  py        
    17      0.804315   2 C  py               26      0.804315   3 C  py        
 
 Vector   38  Occ=0.000000D+00  E= 5.365237D-01
              MO Center= -9.7D-09,  2.2D-08, -3.3D-02, r^2= 4.1D+00
   Bfn.  Coefficient  Atom+Function         Bfn.  Coefficient  Atom+Function  
  ----- ------------  ---------------      ----- ------------  ---------------
    30      0.555693   4 C  px               34     -0.554212   4 C  px        
    39     -0.555693   5 C  px               43      0.554212   5 C  px        
    12      0.506509   2 C  px               16     -0.508595   2 C  px        
    21     -0.506509   3 C  px               25      0.508595   3 C  px        
 
 Vector   39  Occ=0.000000D+00  E= 5.448118D-01
              MO Center= -3.6D-07, -7.9D-09, -4.1D-01, r^2= 4.0D+00
   Bfn.  Coefficient  Atom+Function         Bfn.  Coefficient  Atom+Function  
  ----- ------------  ---------------      ----- ------------  ---------------
    52      0.791277   6 C  px               48     -0.729360   6 C  px        
    16     -0.689220   2 C  px               25     -0.689220   3 C  px        
    12      0.499966   2 C  px               21      0.499966   3 C  px        
    34      0.224103   4 C  px               43      0.224103   5 C  px        
    30     -0.197466   4 C  px               39     -0.197466   5 C  px        
 
 Vector   40  Occ=0.000000D+00  E= 5.449841D-01
              MO Center=  3.8D-07,  3.1D-08, -1.3D-01, r^2= 3.8D+00
   Bfn.  Coefficient  Atom+Function         Bfn.  Coefficient  Atom+Function  
  ----- ------------  ---------------      ----- ------------  ---------------
     6      0.898896   1 N  s                33      0.556646   4 C  s         
    42      0.556647   5 C  s                36      0.553533   4 C  pz        
    45      0.553533   5 C  pz               17     -0.536148   2 C  py        
    26      0.536148   3 C  py               18     -0.414601   2 C  pz        
    27     -0.414601   3 C  pz               14      0.392213   2 C  pz        
 
 Vector   41  Occ=0.000000D+00  E= 5.551982D-01
              MO Center= -1.4D-08, -3.3D-09,  4.2D-02, r^2= 2.6D+00
   Bfn.  Coefficient  Atom+Function         Bfn.  Coefficient  Atom+Function  
  ----- ------------  ---------------      ----- ------------  ---------------
    33      0.766230   4 C  s                42      0.766230   5 C  s         
    35      0.726677   4 C  py               44     -0.726677   5 C  py        
    47     -0.552034   6 C  s                11     -0.457576   2 C  s         
    20     -0.457576   3 C  s                13     -0.450024   2 C  py        
    22      0.450024   3 C  py               51     -0.410838   6 C  s         
 
 Vector   42  Occ=0.000000D+00  E= 5.748776D-01
              MO Center= -8.7D-10, -1.5D-07, -3.9D-01, r^2= 3.9D+00
   Bfn.  Coefficient  Atom+Function         Bfn.  Coefficient  Atom+Function  
  ----- ------------  ---------------      ----- ------------  ---------------
    53      1.385632   6 C  py               49     -0.634753   6 C  py        
    14     -0.551866   2 C  pz               23      0.551866   3 C  pz        
    36     -0.538071   4 C  pz               45      0.538071   5 C  pz        
    35      0.325534   4 C  py               44      0.325534   5 C  py        
    59     -0.315718   9 H  s                61      0.315718  10 H  s         
 
 Vector   43  Occ=0.000000D+00  E= 5.848399D-01
              MO Center= -8.6D-09,  1.5D-07, -1.0D+00, r^2= 3.7D+00
   Bfn.  Coefficient  Atom+Function         Bfn.  Coefficient  Atom+Function  
  ----- ------------  ---------------      ----- ------------  ---------------
    51      0.654752   6 C  s                36     -0.545842   4 C  pz        
    45     -0.545842   5 C  pz               63     -0.538587  11 H  s         
    47     -0.487226   6 C  s                29     -0.400278   4 C  s         
    38     -0.400278   5 C  s                17     -0.382375   2 C  py        
    26      0.382375   3 C  py               32      0.354748   4 C  pz        
 
 Vector   44  Occ=0.000000D+00  E= 5.959261D-01
              MO Center= -4.9D-10, -3.5D-08,  8.4D-02, r^2= 4.6D+00
   Bfn.  Coefficient  Atom+Function         Bfn.  Coefficient  Atom+Function  
  ----- ------------  ---------------      ----- ------------  ---------------
    16      0.944698   2 C  px               25     -0.944698   3 C  px        
    34     -0.888737   4 C  px               43      0.888737   5 C  px        
    12     -0.556140   2 C  px               21      0.556140   3 C  px        
    30      0.519204   4 C  px               39     -0.519204   5 C  px        
 
 Vector   45  Occ=0.000000D+00  E= 6.119427D-01
              MO Center= -1.2D-09, -5.3D-08,  8.8D-01, r^2= 3.4D+00
   Bfn.  Coefficient  Atom+Function         Bfn.  Coefficient  Atom+Function  
  ----- ------------  ---------------      ----- ------------  ---------------
     6      1.191712   1 N  s                 5      0.679204   1 N  pz        
     9     -0.622391   1 N  pz               17     -0.622248   2 C  py        
    26      0.622248   3 C  py               18     -0.609892   2 C  pz        
    27     -0.609892   3 C  pz               15     -0.598847   2 C  s         
    24     -0.598847   3 C  s                33     -0.574956   4 C  s         
 
 Vector   46  Occ=0.000000D+00  E= 6.254832D-01
              MO Center=  3.5D-09,  2.2D-08, -7.0D-01, r^2= 4.2D+00
   Bfn.  Coefficient  Atom+Function         Bfn.  Coefficient  Atom+Function  
  ----- ------------  ---------------      ----- ------------  ---------------
    52      1.389226   6 C  px               34     -1.188071   4 C  px        
    43     -1.188071   5 C  px               48     -0.617059   6 C  px        
    30      0.559577   4 C  px               39      0.559577   5 C  px        
    16      0.477124   2 C  px               25      0.477124   3 C  px        
     3     -0.284735   1 N  px               12     -0.170878   2 C  px        
 
 Vector   47  Occ=0.000000D+00  E= 6.421030D-01
              MO Center=  5.0D-09,  8.1D-08,  5.5D-01, r^2= 3.8D+00
   Bfn.  Coefficient  Atom+Function         Bfn.  Coefficient  Atom+Function  
  ----- ------------  ---------------      ----- ------------  ---------------
    33      0.678813   4 C  s                42     -0.678814   5 C  s         
    15      0.523117   2 C  s                24     -0.523117   3 C  s         
    18      0.490849   2 C  pz               27     -0.490850   3 C  pz        
    11     -0.459170   2 C  s                20      0.459170   3 C  s         
    32     -0.456591   4 C  pz               41      0.456591   5 C  pz        
 
 Vector   48  Occ=0.000000D+00  E= 7.717303D-01
              MO Center= -1.7D-08, -6.6D-06, -1.5D+00, r^2= 4.3D+00
   Bfn.  Coefficient  Atom+Function         Bfn.  Coefficient  Atom+Function  
  ----- ------------  ---------------      ----- ------------  ---------------
    54      3.904679   6 C  pz               35     -2.673435   4 C  py        
    44      2.673423   5 C  py               33     -2.223891   4 C  s         
    42     -2.223889   5 C  s                64      2.232684  11 H  s         
    51      1.879045   6 C  s                36     -1.686957   4 C  pz        
    45     -1.686951   5 C  pz               60     -1.667103   9 H  s         
 
 Vector   49  Occ=0.000000D+00  E= 7.806446D-01
              MO Center=  4.1D-10,  5.5D-06,  1.2D-01, r^2= 7.1D+00
   Bfn.  Coefficient  Atom+Function         Bfn.  Coefficient  Atom+Function  
  ----- ------------  ---------------      ----- ------------  ---------------
    17      1.985955   2 C  py               26      1.985960   3 C  py        
    35     -1.947353   4 C  py               44     -1.947368   5 C  py        
    56      1.621194   7 H  s                58     -1.621196   8 H  s         
    60      1.528506   9 H  s                62     -1.528497  10 H  s         
    18     -1.242778   2 C  pz               27      1.242783   3 C  pz        
 
 Vector   50  Occ=0.000000D+00  E= 7.930735D-01
              MO Center=  1.4D-08, -1.3D-09,  1.3D+00, r^2= 2.8D+00
   Bfn.  Coefficient  Atom+Function         Bfn.  Coefficient  Atom+Function  
  ----- ------------  ---------------      ----- ------------  ---------------
     7      1.629448   1 N  px                3     -0.923102   1 N  px        
    16     -0.885346   2 C  px               25     -0.885346   3 C  px        
    34      0.575354   4 C  px               43      0.575354   5 C  px        
    52     -0.501673   6 C  px               12      0.180031   2 C  px        
    21      0.180031   3 C  px               48      0.138391   6 C  px        
 
 Vector   51  Occ=0.000000D+00  E= 8.219752D-01
              MO Center= -5.3D-09,  1.9D-05,  1.8D-01, r^2= 7.0D+00
   Bfn.  Coefficient  Atom+Function         Bfn.  Coefficient  Atom+Function  
  ----- ------------  ---------------      ----- ------------  ---------------
    18      1.672732   2 C  pz               27      1.672757   3 C  pz        
    56     -1.529610   7 H  s                58     -1.529649   8 H  s         
    17     -1.336083   2 C  py               26      1.336102   3 C  py        
    64      1.307085  11 H  s                51     -1.148857   6 C  s         
     9     -1.052680   1 N  pz               54      0.944147   6 C  pz        
 
 Vector   52  Occ=0.000000D+00  E= 8.222080D-01
              MO Center=  8.9D-10, -1.8D-05,  5.5D-02, r^2= 7.0D+00
   Bfn.  Coefficient  Atom+Function         Bfn.  Coefficient  Atom+Function  
  ----- ------------  ---------------      ----- ------------  ---------------
    15      1.805423   2 C  s                24     -1.805420   3 C  s         
    33      1.546873   4 C  s                42     -1.546847   5 C  s         
    60      1.278051   9 H  s                62     -1.278033  10 H  s         
    56     -1.228078   7 H  s                58      1.228030   8 H  s         
    36     -0.913934   4 C  pz               45      0.913956   5 C  pz        
 
 Vector   53  Occ=0.000000D+00  E= 8.615601D-01
              MO Center=  2.7D-09, -2.1D-08, -3.4D-02, r^2= 6.2D+00
   Bfn.  Coefficient  Atom+Function         Bfn.  Coefficient  Atom+Function  
  ----- ------------  ---------------      ----- ------------  ---------------
    33      1.798041   4 C  s                42      1.798040   5 C  s         
    51      1.712025   6 C  s                18      1.341388   2 C  pz        
    27      1.341387   3 C  pz                9     -1.104230   1 N  pz        
    64     -1.050524  11 H  s                60     -0.960097   9 H  s         
    62     -0.960097  10 H  s                35     -0.931230   4 C  py        
 
 Vector   54  Occ=0.000000D+00  E= 9.115183D-01
              MO Center=  1.5D-09, -2.6D-07, -8.4D-01, r^2= 4.1D+00
   Bfn.  Coefficient  Atom+Function         Bfn.  Coefficient  Atom+Function  
  ----- ------------  ---------------      ----- ------------  ---------------
    53      4.275810   6 C  py               36     -2.641250   4 C  pz        
    45      2.641251   5 C  pz               15      2.266553   2 C  s         
    24     -2.266554   3 C  s                33      2.020036   4 C  s         
    42     -2.020035   5 C  s                35      1.875603   4 C  py        
    44      1.875603   5 C  py               18     -1.107824   2 C  pz        
 
 Vector   55  Occ=0.000000D+00  E= 9.206406D-01
              MO Center=  1.8D-09,  3.5D-07,  9.8D-01, r^2= 5.4D+00
   Bfn.  Coefficient  Atom+Function         Bfn.  Coefficient  Atom+Function  
  ----- ------------  ---------------      ----- ------------  ---------------
    15      0.990204   2 C  s                24      0.990202   3 C  s         
     9      0.984896   1 N  pz               56     -0.834729   7 H  s         
    58     -0.834729   8 H  s                51      0.653832   6 C  s         
    18     -0.603034   2 C  pz               27     -0.603033   3 C  pz        
    17     -0.574568   2 C  py               26      0.574568   3 C  py        
 
 Vector   56  Occ=0.000000D+00  E= 9.533599D-01
              MO Center= -2.0D-09,  5.4D-08, -4.3D-01, r^2= 3.9D+00
   Bfn.  Coefficient  Atom+Function         Bfn.  Coefficient  Atom+Function  
  ----- ------------  ---------------      ----- ------------  ---------------
    15      3.476559   2 C  s                24      3.476559   3 C  s         
    51     -3.352322   6 C  s                36     -2.136099   4 C  pz        
    45     -2.136099   5 C  pz               18     -1.580229   2 C  pz        
    27     -1.580229   3 C  pz               33     -1.338581   4 C  s         
    42     -1.338581   5 C  s                47      1.224576   6 C  s         
 
 Vector   57  Occ=0.000000D+00  E= 9.904157D-01
              MO Center=  3.2D-10, -1.4D-07,  6.7D-01, r^2= 4.1D+00
   Bfn.  Coefficient  Atom+Function         Bfn.  Coefficient  Atom+Function  
  ----- ------------  ---------------      ----- ------------  ---------------
     8      3.269670   1 N  py               53     -2.831732   6 C  py        
    17      2.703449   2 C  py               26      2.703449   3 C  py        
    36      2.526436   4 C  pz               45     -2.526436   5 C  pz        
    18      1.563214   2 C  pz               27     -1.563214   3 C  pz        
    35     -1.012958   4 C  py               44     -1.012958   5 C  py        
 
 Vector   58  Occ=0.000000D+00  E= 1.055017D+00
              MO Center=  7.1D-09, -1.2D-07, -8.3D-02, r^2= 4.8D+00
   Bfn.  Coefficient  Atom+Function         Bfn.  Coefficient  Atom+Function  
  ----- ------------  ---------------      ----- ------------  ---------------
    33      3.931250   4 C  s                42     -3.931251   5 C  s         
    15     -3.475954   2 C  s                24      3.475954   3 C  s         
    29     -1.176116   4 C  s                38      1.176116   5 C  s         
    11      0.973180   2 C  s                20     -0.973180   3 C  s         
    18      0.960731   2 C  pz               27     -0.960731   3 C  pz        
 
 Vector   59  Occ=0.000000D+00  E= 1.101629D+00
              MO Center=  2.0D-09,  4.3D-08, -2.0D-01, r^2= 4.7D+00
   Bfn.  Coefficient  Atom+Function         Bfn.  Coefficient  Atom+Function  
  ----- ------------  ---------------      ----- ------------  ---------------
    51      4.231653   6 C  s                33     -2.016097   4 C  s         
    42     -2.016097   5 C  s                35     -1.934633   4 C  py        
    44      1.934632   5 C  py               17      1.735521   2 C  py        
    26     -1.735522   3 C  py                6     -0.820087   1 N  s         
    29      0.674101   4 C  s                38      0.674100   5 C  s         
 
 Vector   60  Occ=0.000000D+00  E= 1.133960D+00
              MO Center= -4.5D-09, -5.4D-08, -7.3D-01, r^2= 4.9D+00
   Bfn.  Coefficient  Atom+Function         Bfn.  Coefficient  Atom+Function  
  ----- ------------  ---------------      ----- ------------  ---------------
    33      2.944973   4 C  s                42      2.944973   5 C  s         
    51     -2.475119   6 C  s                15     -1.518560   2 C  s         
    24     -1.518561   3 C  s                47      1.108087   6 C  s         
    17      1.059540   2 C  py               26     -1.059540   3 C  py        
    29     -0.885306   4 C  s                38     -0.885306   5 C  s         
 
 Vector   61  Occ=0.000000D+00  E= 1.217580D+00
              MO Center=  3.5D-10, -4.9D-08,  5.6D-02, r^2= 4.8D+00
   Bfn.  Coefficient  Atom+Function         Bfn.  Coefficient  Atom+Function  
  ----- ------------  ---------------      ----- ------------  ---------------
     8      3.297103   1 N  py               15      2.297557   2 C  s         
    24     -2.297556   3 C  s                35     -2.227134   4 C  py        
    44     -2.227134   5 C  py               18      1.752690   2 C  pz        
    27     -1.752690   3 C  pz               17      1.366610   2 C  py        
    26      1.366610   3 C  py               60      0.755593   9 H  s         
 
 Vector   62  Occ=0.000000D+00  E= 1.383486D+00
              MO Center=  2.8D-09, -2.5D-07, -4.3D-01, r^2= 4.0D+00
   Bfn.  Coefficient  Atom+Function         Bfn.  Coefficient  Atom+Function  
  ----- ------------  ---------------      ----- ------------  ---------------
    51      5.443998   6 C  s                54      5.293002   6 C  pz        
    33     -4.789339   4 C  s                42     -4.789335   5 C  s         
    35     -2.666287   4 C  py               44      2.666285   5 C  py        
     6      2.262343   1 N  s                36     -2.001220   4 C  pz        
    45     -2.001218   5 C  pz               15      1.386680   2 C  s         
 
 Vector   63  Occ=0.000000D+00  E= 1.439579D+00
              MO Center=  3.8D-10,  3.2D-07,  5.3D-01, r^2= 4.5D+00
   Bfn.  Coefficient  Atom+Function         Bfn.  Coefficient  Atom+Function  
  ----- ------------  ---------------      ----- ------------  ---------------
    33      3.152439   4 C  s                42     -3.152446   5 C  s         
    18      2.778021   2 C  pz               27     -2.778023   3 C  pz        
    17     -2.461647   2 C  py               26     -2.461647   3 C  py        
    35      2.388010   4 C  py               44      2.388014   5 C  py        
    15     -2.236258   2 C  s                24      2.236261   3 C  s         
 
 Vector   64  Occ=0.000000D+00  E= 1.771955D+00
              MO Center= -1.3D-09, -2.3D-08,  4.8D-01, r^2= 4.1D+00
   Bfn.  Coefficient  Atom+Function         Bfn.  Coefficient  Atom+Function  
  ----- ------------  ---------------      ----- ------------  ---------------
    51     -8.950541   6 C  s                 6      8.617961   1 N  s         
    33      7.899254   4 C  s                42      7.899253   5 C  s         
    15     -6.466464   2 C  s                24     -6.466464   3 C  s         
    54     -5.503121   6 C  pz               35      4.975092   4 C  py        
    44     -4.975092   5 C  py               17     -3.609041   2 C  py        
 

 center of mass
 --------------
 x =   0.00000000 y =   0.00000000 z =   0.04995438

 moments of inertia (a.u.)
 ------------------
         613.100111299884           0.000000000000           0.000000000000
           0.000000000000         310.421311063594           0.000000000000
           0.000000000000           0.000000000000         302.678800236291
 
     Multipole analysis of the density
     ---------------------------------
 
     L   x y z        total         alpha         beta         nuclear
     -   - - -        -----         -----         ----         -------
     0   0 0 0     -0.000000    -21.000000    -21.000000     42.000000
 
     1   1 0 0     -0.000000     -0.000000     -0.000000      0.000000
     1   0 1 0      0.000000      0.000000      0.000000      0.000000
     1   0 0 1     -0.973426     -0.424225     -0.424225     -0.124975
 
     2   2 0 0    -27.771624    -13.885812    -13.885812      0.000000
     2   1 1 0      0.000000      0.000000      0.000000      0.000000
     2   1 0 1     -0.000000     -0.000000     -0.000000      0.000000
     2   0 2 0    -21.482506   -102.367629   -102.367629    183.252752
     2   0 1 1      0.000000      0.000000      0.000000      0.000000
     2   0 0 2    -27.040858   -102.202718   -102.202718    177.364578
 
                                NWChem TDDFT Module
                                -------------------
 
 
             RI-TDDFT/LDA geometry optimization of Pyridine with 6-31G
 
 
            General Information
            -------------------
           No. of orbitals :     128
            Alpha orbitals :      64
             Beta orbitals :      64
        Alpha frozen cores :       0
         Beta frozen cores :       0
     Alpha frozen virtuals :       0
      Beta frozen virtuals :       0
         Spin multiplicity :       1
    Number of AO functions :      64
        Use of symmetry is : off
      Symmetry adaption is : off
         Schwarz screening :  0.10D-07
 
              XC Information
              --------------
                 Slater Exchange Functional   1.00 local    
               VWN V Correlation Functional   1.00 local    
 
             TDDFT Information
             -----------------
          Calculation type : TDDFT             
         Wavefunction type : Restricted singlets
          No. of electrons :      42
           Alpha electrons :      21
            Beta electrons :      21
              No. of roots :       2
          Max subspacesize :    4400
            Max iterations :     100
               Target root :       1
           Target symmetry : a   
      Symmetry restriction : off
                 Algorithm : Incore multiple tensor contraction
        Davidson threshold :  0.10D-03
 
            Memory Information
            ------------------
          Available GA space size is         104853504 doubles
          Available MA space size is          52415036 doubles
          Length of a trial vector is          903
          Estimated peak GA usage is          15978332 doubles
          Estimated peak MA usage is              3000 doubles
 
    2 smallest eigenvalue differences (eV) 
--------------------------------------------------------
  No. Spin  Occ  Vir  Irrep   E(Occ)    E(Vir)   E(Diff)
--------------------------------------------------------
    1    1   21   22 a        -0.198    -0.061     3.722
    2    1   21   23 a        -0.198    -0.050     4.031
--------------------------------------------------------

  Entering Davidson iterations
  Restricted singlet excited states

  Iter   NTrls   NConv    DeltaV     DeltaE      Time   
  ----  ------  ------  ---------  ---------  --------- 
    1      2       0     0.75E-01   0.10+100        1.9
    2      4       0     0.14E-01   0.35E-02        2.0
    3      8       0     0.31E-02   0.12E-03        2.8
    4     12       0     0.10E-02   0.42E-05        2.9
    5     16       0     0.41E-03   0.21E-06        3.1
    6     20       1     0.13E-03   0.26E-07        3.7
    7     22       2     0.47E-04   0.26E-08        2.7
  ----  ------  ------  ---------  ---------  --------- 
  Convergence criterion met
 
  Ground state a        -245.988330920015 a.u.
 
  ----------------------------------------------------------------------------
  Root   1 singlet a              0.149820157 a.u.                4.0768 eV 
  ----------------------------------------------------------------------------
     Transition Moments    X  0.00000   Y  0.00000   Z -0.00000
     Transition Moments   XX  0.00000  XY -0.19252  XZ  0.00000
     Transition Moments   YY -0.00000  YZ  0.00000  ZZ  0.00000
     Dipole Oscillator Strength                    0.0000000000
     Electric Quadrupole                           0.0000000007
     Magnetic Dipole                               0.0000000077
     Total Oscillator Strength                     0.0000000084
 
     Occ.   21  a   ---  Virt.   23  a    0.99980 X
  ----------------------------------------------------------------------------
  Root   2 singlet a              0.151835524 a.u.                4.1317 eV 
  ----------------------------------------------------------------------------
     Transition Moments    X  0.20656   Y -0.00000   Z -0.00000
     Transition Moments   XX -0.00000  XY  0.00000  XZ  0.78809
     Transition Moments   YY -0.00001  YZ -0.00000  ZZ  0.00001
     Dipole Oscillator Strength                    0.0043190027
     Electric Quadrupole                           0.0000000116
     Magnetic Dipole                               0.0000009905
     Total Oscillator Strength                     0.0043200048
 
     Occ.   21  a   ---  Virt.   22  a   -0.99764 X
     Occ.   21  a   ---  Virt.   22  a    0.05209 Y
     Occ.   21  a   ---  Virt.   25  a    0.07894 X
 
              Target root =      1
          Target symmetry = a   
      Ground state energy =   -245.988330920015
        Excitation energy =      0.149820156708
     Excited state energy =   -245.838510763307
 
  stored tddft:energy   -245.838510763307     
 fn_civecs: 
 ./ri-tddft_pyridine.civecs_singlet                                             
                                                                                
                                                                                
                   

  CI vectors are stored in ./ri-tddft_pyridine.civecs_singl
 
 
                           NWChem TDDFT Gradient Module
                           ----------------------------
 
 
 ./ri-tddft_pyridine.civecs_singlet                                             
                                                                                
                                                                                
                   
             RI-TDDFT/LDA geometry optimization of Pyridine with 6-31G
 
 
 Calculated gradients of:
 Number of Singlet roots   1
 Singlet roots    1 
 
 Start at time  cpu:       31.5s  wall:       31.6s
 
 nroot:                      1
TDDFT Energy Check(  1) =       0.14982015668180


Iterative solution of linear equations
  No. of variables      903
  No. of equations        1
  Maximum subspace       40
        Iterations      250
       Convergence  1.0D-04
        Start time     43.1


   iter   nsub   residual    time
   ----  ------  --------  ---------
     1      1    1.06D+00      44.6
     2      2    4.91D-02      46.1
     3      3    2.28D-02      47.5
     4      4    3.76D-03      48.9
     5      5    1.45D-03      50.3
     6      6    1.88D-04      51.7
     7      7    5.50D-05      53.0
 
     Multipole analysis of the density
     ---------------------------------
 
     L   x y z        total
     -   - - -        -----
     0   0 0 0     -0.000000
 
     1   1 0 0     -0.000000
     1   0 1 0      0.000000
     1   0 0 1      0.090293
 
     2   2 0 0    -29.031583
     2   1 1 0     -0.000000
     2   1 0 1      0.000000
     2   0 2 0    -22.668820
     2   0 1 1     -0.000000
     2   0 0 2    -22.879071
 
 
     No. of electrons (tr(P*S)):     0.4200000E+02
 


                         Root   1

                         TDDFT ENERGY GRADIENTS

    atom               coordinates                        gradient
                 x          y          z           x          y          z
   1 N       0.000000   0.000000   2.675839    0.000000   0.000000   0.096378
   2 C       0.000000  -2.180232   1.361874   -0.000000   0.026274  -0.090392
[...]
   32 Torsion                  2     1     3     5          -0.00038    0.00000
   33 Torsion                  2     1     3     8         179.99955    0.00000
   34 Torsion                  2     4     6     5          -0.00038    0.00000
   35 Torsion                  2     4     6    11         179.99962    0.00000
   36 Torsion                  3     1     2     4          -0.00038    0.00000
   37 Torsion                  3     1     2     7         179.99953    0.00000
   38 Torsion                  3     5     6     4          -0.00039    0.00000
   39 Torsion                  3     5     6    11         179.99961    0.00000
   40 Torsion                  4     6     5     9        -179.99983   -0.00000
   41 Torsion                  5     6     4    10        -179.99982   -0.00000
   42 Torsion                  6     4     2     7        -179.99916   -0.00000
   43 Torsion                  6     5     3     8        -179.99918   -0.00000
   44 Torsion                  7     2     4    10           0.00030   -0.00000
   45 Torsion                  8     3     5     9           0.00029   -0.00000
   46 Torsion                  9     5     6    11           0.00017   -0.00000
   47 Torsion                 10     4     6    11           0.00018   -0.00000
 

      ----------------------
      Optimization converged
      ----------------------


  Step       Energy      Delta E   Gmax     Grms     Xrms     Xmax   Walltime
  ---- ---------------- -------- -------- -------- -------- -------- --------
@    6    -245.86121861 -6.1D-06  0.00044  0.00013  0.00008  0.00021    587.3
                                     ok       ok       ok       ok  



                                Z-matrix (autoz)
                                -------- 

 Units are Angstrom for bonds and degrees for angles
 
      Type          Name      I     J     K     L     M      Value     Gradient
      ----------- --------  ----- ----- ----- ----- ----- ---------- ----------
    1 Stretch                  1     2                       1.31957    0.00037
    2 Stretch                  1     3                       1.31956    0.00037
    3 Stretch                  2     4                       1.45933    0.00008
    4 Stretch                  2     7                       1.08876    0.00009
    5 Stretch                  3     5                       1.45933    0.00008
    6 Stretch                  3     8                       1.08876    0.00009
    7 Stretch                  4     6                       1.39336    0.00044
    8 Stretch                  4    10                       1.09059    0.00009
    9 Stretch                  5     6                       1.39337    0.00044
   10 Stretch                  5     9                       1.09059    0.00009
   11 Stretch                  6    11                       1.09890   -0.00026
   12 Bend                     1     2     4               114.06402   -0.00002
   13 Bend                     1     2     7               119.60662   -0.00006
   14 Bend                     1     3     5               114.06510   -0.00002
   15 Bend                     1     3     8               119.60629   -0.00006
   16 Bend                     2     1     3               133.16655    0.00007
   17 Bend                     2     4     6               117.60422    0.00000
   18 Bend                     2     4    10               118.83492   -0.00005
   19 Bend                     3     5     6               117.60308    0.00000
   20 Bend                     3     5     9               118.83557   -0.00004
   21 Bend                     4     2     7               126.32936    0.00008
   22 Bend                     4     6     5               123.49703   -0.00003
   23 Bend                     4     6    11               118.25164    0.00002
   24 Bend                     5     3     8               126.32861    0.00008
   25 Bend                     5     6    11               118.25133    0.00002
   26 Bend                     6     4    10               123.56086    0.00004
   27 Bend                     6     5     9               123.56135    0.00004
   28 Torsion                  1     2     4     6           0.00075   -0.00000
   29 Torsion                  1     2     4    10        -179.99979   -0.00000
   30 Torsion                  1     3     5     6           0.00075   -0.00000
   31 Torsion                  1     3     5     9        -179.99978   -0.00000
   32 Torsion                  2     1     3     5          -0.00038    0.00000
   33 Torsion                  2     1     3     8         179.99955    0.00000
   34 Torsion                  2     4     6     5          -0.00038    0.00000
   35 Torsion                  2     4     6    11         179.99962    0.00000
   36 Torsion                  3     1     2     4          -0.00038    0.00000
   37 Torsion                  3     1     2     7         179.99953    0.00000
   38 Torsion                  3     5     6     4          -0.00039    0.00000
   39 Torsion                  3     5     6    11         179.99961    0.00000
   40 Torsion                  4     6     5     9        -179.99983   -0.00000
   41 Torsion                  5     6     4    10        -179.99982   -0.00000
   42 Torsion                  6     4     2     7        -179.99916   -0.00000
   43 Torsion                  6     5     3     8        -179.99918   -0.00000
   44 Torsion                  7     2     4    10           0.00030   -0.00000
   45 Torsion                  8     3     5     9           0.00029   -0.00000
   46 Torsion                  9     5     6    11           0.00017   -0.00000
   47 Torsion                 10     4     6    11           0.00018   -0.00000
 
 
 
                         Geometry "geometry" -> "geometry"
                         ---------------------------------
 
 Output coordinates in angstroms (scale by  1.889725989 to convert to a.u.)
 
  No.       Tag          Charge          X              Y              Z
 ---- ---------------- ---------- -------------- -------------- --------------
    1 N                    7.0000    -0.00000009     0.00000087     1.27533367
    2 C                    6.0000     0.00000227    -1.21088947     0.75091913
    3 C                    6.0000    -0.00000240     1.21088073     0.75091524
    4 C                    6.0000    -0.00000649    -1.22738010    -0.70831381
    5 C                    6.0000     0.00000644     1.22739017    -0.70831771
    6 C                    6.0000    -0.00000003    -0.00000169    -1.36785460
    7 H                    1.0000     0.00001169    -2.08067663     1.40579938
    8 H                    1.0000    -0.00001152     2.08066912     1.40579615
    9 H                    1.0000     0.00000880     2.18864503    -1.22346518
   10 H                    1.0000    -0.00000864    -2.18863538    -1.22346338
   11 H                    1.0000    -0.00000004    -0.00000266    -2.46675931
 
      Atomic Mass 
      ----------- 
 
      N                 14.003070
      C                 12.000000
      H                  1.007825
 

 Effective nuclear repulsion energy (a.u.)     204.2572535906

            Nuclear Dipole moment (a.u.) 
            ----------------------------
        X                 Y               Z
 ---------------- ---------------- ----------------
    -0.0000028974     0.0000065706    -1.6453223584
 
 
                Final and change from initial internal coordinates
                --------------------------------------------------
 


                                Z-matrix (autoz)
                                -------- 

 Units are Angstrom for bonds and degrees for angles
 
      Type          Name      I     J     K     L     M      Value       Change
      ----------- --------  ----- ----- ----- ----- ----- ---------- ----------
    1 Stretch                  1     2                       1.31957   -0.02749
    2 Stretch                  1     3                       1.31956   -0.02749
    3 Stretch                  2     4                       1.45933    0.06392
    4 Stretch                  2     7                       1.08876   -0.00866
    5 Stretch                  3     5                       1.45933    0.06392
    6 Stretch                  3     8                       1.08876   -0.00866
    7 Stretch                  4     6                       1.39336   -0.00248
    8 Stretch                  4    10                       1.09059   -0.00534
    9 Stretch                  5     6                       1.39337   -0.00247
   10 Stretch                  5     9                       1.09059   -0.00535
   11 Stretch                  6    11                       1.09890    0.00254
   12 Bend                     1     2     4               114.06402   -8.98174
   13 Bend                     1     2     7               119.60662    3.48636
   14 Bend                     1     3     5               114.06510   -8.98067
   15 Bend                     1     3     8               119.60629    3.48604
   16 Bend                     2     1     3               133.16655   15.31893
   17 Bend                     2     4     6               117.60422   -1.00766
   18 Bend                     2     4    10               118.83492   -1.37248
   19 Bend                     3     5     6               117.60308   -1.00880
   20 Bend                     3     5     9               118.83557   -1.37183
   21 Bend                     4     2     7               126.32936    5.49538
   22 Bend                     4     6     5               123.49703    4.65994
   23 Bend                     4     6    11               118.25164   -2.32982
   24 Bend                     5     3     8               126.32861    5.49463
   25 Bend                     5     6    11               118.25133   -2.33012
   26 Bend                     6     4    10               123.56086    2.38014
   27 Bend                     6     5     9               123.56135    2.38063
   28 Torsion                  1     2     4     6           0.00075    0.00075
   29 Torsion                  1     2     4    10        -179.99979    0.00021
   30 Torsion                  1     3     5     6           0.00075    0.00075
   31 Torsion                  1     3     5     9        -179.99978    0.00022
   32 Torsion                  2     1     3     5          -0.00038   -0.00038
   33 Torsion                  2     1     3     8         179.99955   -0.00045
   34 Torsion                  2     4     6     5          -0.00038   -0.00038
   35 Torsion                  2     4     6    11         179.99962   -0.00038
   36 Torsion                  3     1     2     4          -0.00038   -0.00038
   37 Torsion                  3     1     2     7         179.99953   -0.00047
   38 Torsion                  3     5     6     4          -0.00039   -0.00039
   39 Torsion                  3     5     6    11         179.99961   -0.00039
   40 Torsion                  4     6     5     9        -179.99983    0.00017
   41 Torsion                  5     6     4    10        -179.99982    0.00018
   42 Torsion                  6     4     2     7        -179.99916    0.00084
   43 Torsion                  6     5     3     8        -179.99918    0.00082
   44 Torsion                  7     2     4    10           0.00030    0.00030
   45 Torsion                  8     3     5     9           0.00029    0.00029
   46 Torsion                  9     5     6    11           0.00017    0.00017
   47 Torsion                 10     4     6    11           0.00018    0.00018
 
 ==============================================================================
                                internuclear distances
 ------------------------------------------------------------------------------
       center one      |      center two      | atomic units |  angstroms
 ------------------------------------------------------------------------------
    2 C                |   1 N                |     2.49363  |     1.31957
    3 C                |   1 N                |     2.49361  |     1.31956
    4 C                |   2 C                |     2.75773  |     1.45933
    5 C                |   3 C                |     2.75773  |     1.45933
    6 C                |   4 C                |     2.63307  |     1.39336
    6 C                |   5 C                |     2.63309  |     1.39337
    7 H                |   2 C                |     2.05746  |     1.08876
    8 H                |   3 C                |     2.05746  |     1.08876
    9 H                |   5 C                |     2.06092  |     1.09059
   10 H                |   4 C                |     2.06092  |     1.09059
   11 H                |   6 C                |     2.07663  |     1.09890
 ------------------------------------------------------------------------------
                         number of included internuclear distances:         11
 ==============================================================================



 ==============================================================================
                                 internuclear angles
 ------------------------------------------------------------------------------
        center 1       |       center 2       |       center 3       |  degrees
 ------------------------------------------------------------------------------
    2 C                |   1 N                |   3 C                |   133.17
    1 N                |   2 C                |   4 C                |   114.06
    1 N                |   2 C                |   7 H                |   119.61
    4 C                |   2 C                |   7 H                |   126.33
    1 N                |   3 C                |   5 C                |   114.07
    1 N                |   3 C                |   8 H                |   119.61
    5 C                |   3 C                |   8 H                |   126.33
    2 C                |   4 C                |   6 C                |   117.60
    2 C                |   4 C                |  10 H                |   118.83
    6 C                |   4 C                |  10 H                |   123.56
    3 C                |   5 C                |   6 C                |   117.60
    3 C                |   5 C                |   9 H                |   118.84
    6 C                |   5 C                |   9 H                |   123.56
    4 C                |   6 C                |   5 C                |   123.50
    4 C                |   6 C                |  11 H                |   118.25
    5 C                |   6 C                |  11 H                |   118.25
 ------------------------------------------------------------------------------
                            number of included internuclear angles:         16
 ==============================================================================




 Task  times  cpu:      584.7s     wall:      587.3s
 
 
                                NWChem Input Module
                                -------------------
 
 
 Summary of allocated global arrays
-----------------------------------
  No active global arrays



                         GA Statistics for process    0
                         ------------------------------

       create   destroy   get      put      acc     scatter   gather  read&inc
calls: 7309     7309     9.91e+06 5.93e+05 9.49e+06 1633        0     2.87e+04 
number of processes/call 6.65e+00 7.28e+01 1.42e+00 0.00e+00 0.00e+00
bytes total:             3.37e+09 4.98e+08 3.08e+09 1.64e+04 0.00e+00 2.30e+05
bytes remote:            1.15e+08 1.90e+08 5.88e+08 -1.64e+04 0.00e+00 0.00e+00
Max memory consumed for GA by this process: 48889624 bytes
 
MA_summarize_allocated_blocks: starting scan ...
MA_summarize_allocated_blocks: scan completed: 0 heap blocks, 0 stack blocks
MA usage statistics:

	allocation statistics:
					      heap	     stack
					      ----	     -----
	current number of blocks	         0	         0
	maximum number of blocks	        26	        99
	current total bytes		         0	         0
	maximum total bytes		  23505592	  42919752
	maximum total K-bytes		     23506	     42920
	maximum total M-bytes		        24	        43
 
 
                                     CITATION
                                     --------
                Please cite the following reference when publishing
                           results obtained with NWChem:
 
          E. Apra, E. J. Bylaska, W. A. de Jong, N. Govind, K. Kowalski,
       T. P. Straatsma, M. Valiev, H. J. J. van Dam, Y. Alexeev, J. Anchell,
       V. Anisimov, F. W. Aquino, R. Atta-Fynn, J. Autschbach, N. P. Bauman,
     J. C. Becca, D. E. Bernholdt, K. Bhaskaran-Nair, S. Bogatko, P. Borowski,
         J. Boschen, J. Brabec, A. Bruner, E. Cauet, Y. Chen, G. N. Chuev,
      C. J. Cramer, J. Daily, M. J. O. Deegan, T. H. Dunning Jr., M. Dupuis,
   K. G. Dyall, G. I. Fann, S. A. Fischer, A. Fonari, H. Fruchtl, L. Gagliardi,
      J. Garza, N. Gawande, S. Ghosh, K. Glaesemann, A. W. Gotz, J. Hammond,
       V. Helms, E. D. Hermes, K. Hirao, S. Hirata, M. Jacquelin, L. Jensen,
   B. G. Johnson, H. Jonsson, R. A. Kendall, M. Klemm, R. Kobayashi, V. Konkov,
      S. Krishnamoorthy, M. Krishnan, Z. Lin, R. D. Lins, R. J. Littlefield,
      A. J. Logsdail, K. Lopata, W. Ma, A. V. Marenich, J. Martin del Campo,
   D. Mejia-Rodriguez, J. E. Moore, J. M. Mullin, T. Nakajima, D. R. Nascimento,
    J. A. Nichols, P. J. Nichols, J. Nieplocha, A. Otero-de-la-Roza, B. Palmer,
    A. Panyala, T. Pirojsirikul, B. Peng, R. Peverati, J. Pittner, L. Pollack,
   R. M. Richard, P. Sadayappan, G. C. Schatz, W. A. Shelton, D. W. Silverstein,
   D. M. A. Smith, T. A. Soares, D. Song, M. Swart, H. L. Taylor, G. S. Thomas,
            V. Tipparaju, D. G. Truhlar, K. Tsemekhman, T. Van Voorhis,
      A. Vazquez-Mayagoitia, P. Verma, O. Villa, A. Vishnu, K. D. Vogiatzis,
        D. Wang, J. H. Weare, M. J. Williamson, T. L. Windus, K. Wolinski,
        A. T. Wong, Q. Wu, C. Yang, Q. Yu, M. Zacharias, Z. Zhang, Y. Zhao,
                                and R. J. Harrison
                        "NWChem: Past, present, and future
                         J. Chem. Phys. 152, 184102 (2020)
                               doi:10.1063/5.0004997
 
                                      AUTHORS
                                      -------
     E. Apra, E. J. Bylaska, N. Govind, K. Kowalski, M. Valiev, W. A. de Jong,
      T. P. Straatsma, H. J. J. van Dam, D. Wang, T. L. Windus, N. P. Bauman,
       A. Panyala, J. Hammond, J. Autschbach, K. Bhaskaran-Nair, J. Brabec,
    K. Lopata, S. A. Fischer, S. Krishnamoorthy, M. Jacquelin, W. Ma, M. Klemm,
       O. Villa, Y. Chen, V. Anisimov, F. Aquino, S. Hirata, M. T. Hackler,
           Eric Hermes, L. Jensen, J. E. Moore, J. C. Becca, V. Konjkov,
            D. Mejia-Rodriguez, T. Risthaus, M. Malagoli, A. Marenich,
   A. Otero-de-la-Roza, J. Mullin, P. Nichols, R. Peverati, J. Pittner, Y. Zhao,
        P.-D. Fan, A. Fonari, M. J. Williamson, R. J. Harrison, J. R. Rehr,
      M. Dupuis, D. Silverstein, D. M. A. Smith, J. Nieplocha, V. Tipparaju,
      M. Krishnan, B. E. Van Kuiken, A. Vazquez-Mayagoitia, M. Swart, Q. Wu,
   T. Van Voorhis, A. A. Auer, M. Nooijen, L. D. Crosby, E. Brown, G. Cisneros,
     G. I. Fann, H. Fruchtl, J. Garza, K. Hirao, R. A. Kendall, J. A. Nichols,
       K. Tsemekhman, K. Wolinski, J. Anchell, D. E. Bernholdt, P. Borowski,
       T. Clark, D. Clerc, H. Dachsel, M. J. O. Deegan, K. Dyall, D. Elwood,
      E. Glendening, M. Gutowski, A. C. Hess, J. Jaffe, B. G. Johnson, J. Ju,
        R. Kobayashi, R. Kutteh, Z. Lin, R. Littlefield, X. Long, B. Meng,
      T. Nakajima, S. Niu, L. Pollack, M. Rosing, K. Glaesemann, G. Sandrone,
      M. Stave, H. Taylor, G. Thomas, J. H. van Lenthe, A. T. Wong, Z. Zhang.

 Total times  cpu:      584.8s     wall:      587.4s
