refund: UserID = kowalski
refund: SLURM Job ID = 2679530
refund: Number of nodes          = 1
refund: Number of cores per node = 16
refund: Number of cores          = 16
refund: Amount of time requested = 0:30
refund: Directory = /home/kowalski/NWCHEM_GITHUB/nwchem_2018_clean/QA/chem_library_tests/CH4_STO6G_FCI
 
Processor list
 
g1010
 
 argument  1 = /home/kowalski/NWCHEM_GITHUB/nwchem_2018_clean/QA/chem_library_tests/CH4_STO6G_FCI/ch4_sto6g_fci.nw
All connections between all procs tested: SUCCESS
 


============================== echo of input deck ==============================
start ch4_sto6g

echo

geometry units angstrom
symmetry c1
 C            0.000000     0.000000     0.000000
 H            0.629118     0.629118     0.629118
 H           -0.629118    -0.629118     0.629118
 H            0.629118    -0.629118    -0.629118
 H           -0.629118     0.629118    -0.629118
end

basis
 * library sto-6g
end

scf
thresh 1.0e-10
tol2e 1.0e-11
singlet
rhf
end

tce
2eorb
2emet 13
tilesize 1
ccsd
thresh 1.0e-6
end

set tce:print_integrals T
set tce:qorb  9
set tce:qela  5
set tce:qelb  5

task tce energy

mcscf
  active   9
  actelec 10
  multiplicity 1
end

task mcscf

================================================================================


                                         
                                         
 
 
              Northwest Computational Chemistry Package (NWChem) 6.8
              ------------------------------------------------------
 
 
                    Environmental Molecular Sciences Laboratory
                       Pacific Northwest National Laboratory
                                Richland, WA 99352
 
                              Copyright (c) 1994-2018
                       Pacific Northwest National Laboratory
                            Battelle Memorial Institute
 
             NWChem is an open-source computational chemistry package
                        distributed under the terms of the
                      Educational Community License (ECL) 2.0
             A copy of the license is included with this distribution
                              in the LICENSE.TXT file
 
                                  ACKNOWLEDGMENT
                                  --------------

            This software and its documentation were developed at the
            EMSL at Pacific Northwest National Laboratory, a multiprogram
            national laboratory, operated for the U.S. Department of Energy
            by Battelle under Contract Number DE-AC05-76RL01830. Support
            for this work was provided by the Department of Energy Office
            of Biological and Environmental Research, Office of Basic
            Energy Sciences, and the Office of Advanced Scientific Computing.


           Job information
           ---------------

    hostname        = g1010
    program         = /home/kowalski/NWCHEM_GITHUB/nwchem_2018_clean/bin/LINUX64/nwchem
    date            = Thu Oct 18 10:40:48 2018

    compiled        = Wed_Oct_17_13:24:31_2018
    source          = /home/kowalski/NWCHEM_GITHUB/nwchem_2018_clean
    nwchem branch   = Development
    nwchem revision = nwchem_on_git-600-g8e3a403
    ga revision     = 5.6.5
    use scalapack   = T
    input           = /home/kowalski/NWCHEM_GITHUB/nwchem_2018_clean/QA/chem_library_tests/CH4_STO6G_FCI/ch4_sto6g_fci.nw
    prefix          = ch4_sto6g.
    data base       = ./ch4_sto6g.db
    status          = startup
    nproc           =       16
    time left       =     -1s



           Memory information
           ------------------

    heap     =   13107200 doubles =    100.0 Mbytes
    stack    =   13107197 doubles =    100.0 Mbytes
    global   =   26214400 doubles =    200.0 Mbytes (distinct from heap & stack)
    total    =   52428797 doubles =    400.0 Mbytes
    verify   = yes
    hardfail = no 


           Directory information
           ---------------------
 
  0 permanent = .
  0 scratch   = .
 
 
 
 
                                NWChem Input Module
                                -------------------
 
 

 Scaling coordinates for geometry "geometry" by  1.889725989
 (inverse scale =  0.529177249)

 Turning off AUTOSYM since
 SYMMETRY directive was detected!
 

          ------
          auto-z
          ------
  Looking for out-of-plane bends
  no constraints, skipping   0.000000000000000E+000
  no constraints, skipping   0.000000000000000E+000
 
 
                             Geometry "geometry" -> ""
                             -------------------------
 
 Output coordinates in angstroms (scale by  1.889725989 to convert to a.u.)
 
  No.       Tag          Charge          X              Y              Z
 ---- ---------------- ---------- -------------- -------------- --------------
    1 C                    6.0000     0.00000000     0.00000000     0.00000000
    2 H                    1.0000     0.62911800     0.62911800     0.62911800
    3 H                    1.0000    -0.62911800    -0.62911800     0.62911800
    4 H                    1.0000     0.62911800    -0.62911800    -0.62911800
    5 H                    1.0000    -0.62911800     0.62911800    -0.62911800
 
      Atomic Mass 
      ----------- 
 
      C                 12.000000
      H                  1.007825
 

 Effective nuclear repulsion energy (a.u.)      13.4395288570

            Nuclear Dipole moment (a.u.) 
            ----------------------------
        X                 Y               Z
 ---------------- ---------------- ----------------
     0.0000000000     0.0000000000     0.0000000000
 


                                Z-matrix (autoz)
                                -------- 

 Units are Angstrom for bonds and degrees for angles
 
      Type          Name      I     J     K     L     M      Value
      ----------- --------  ----- ----- ----- ----- ----- ----------
    1 Stretch                  1     2                       1.08966
    2 Stretch                  1     3                       1.08966
    3 Stretch                  1     4                       1.08966
    4 Stretch                  1     5                       1.08966
    5 Bend                     2     1     3               109.47122
    6 Bend                     2     1     4               109.47122
    7 Bend                     2     1     5               109.47122
    8 Bend                     3     1     4               109.47122
    9 Bend                     3     1     5               109.47122
   10 Bend                     4     1     5               109.47122
 
 
            XYZ format geometry
            -------------------
     5
 geometry
 C                     0.00000000     0.00000000     0.00000000
 H                     0.62911800     0.62911800     0.62911800
 H                    -0.62911800    -0.62911800     0.62911800
 H                     0.62911800    -0.62911800    -0.62911800
 H                    -0.62911800     0.62911800    -0.62911800
 
 ==============================================================================
                                internuclear distances
 ------------------------------------------------------------------------------
       center one      |      center two      | atomic units |  angstroms
 ------------------------------------------------------------------------------
    2 H                |   1 C                |     2.05917  |     1.08966
    3 H                |   1 C                |     2.05917  |     1.08966
    4 H                |   1 C                |     2.05917  |     1.08966
    5 H                |   1 C                |     2.05917  |     1.08966
 ------------------------------------------------------------------------------
                         number of included internuclear distances:          4
 ==============================================================================



 ==============================================================================
                                 internuclear angles
 ------------------------------------------------------------------------------
        center 1       |       center 2       |       center 3       |  degrees
 ------------------------------------------------------------------------------
    2 H                |   1 C                |   3 H                |   109.47
    2 H                |   1 C                |   4 H                |   109.47
    2 H                |   1 C                |   5 H                |   109.47
    3 H                |   1 C                |   4 H                |   109.47
    3 H                |   1 C                |   5 H                |   109.47
    4 H                |   1 C                |   5 H                |   109.47
 ------------------------------------------------------------------------------
                            number of included internuclear angles:          6
 ==============================================================================



  library name resolved from: environment
  library file name is: <
 /home/scicons/cascade/apps/nwchem-6.8.1_rhel7/src/basis/libraries/>
  


 Summary of "ao basis" -> "" (cartesian)
 ------------------------------------------------------------------------------
       Tag                 Description            Shells   Functions and Types
 ---------------- ------------------------------  ------  ---------------------
 *                           sto-6g                   on all atoms 


                      Basis "ao basis" -> "ao basis" (cartesian)
                      -----
  C (Carbon)
  ----------
            Exponent  Coefficients 
       -------------- ---------------------------------------------------------
  1 S  7.42737049E+02  0.009164
  1 S  1.36180025E+02  0.049361
  1 S  3.80982635E+01  0.168538
  1 S  1.30877818E+01  0.370563
  1 S  5.08236865E+00  0.416492
  1 S  2.09320008E+00  0.130334
 
  2 S  3.04972395E+01 -0.013253
  2 S  6.03619960E+00 -0.046992
  2 S  1.87604634E+00 -0.033785
  2 S  7.21782647E-01  0.250242
  2 S  3.13470695E-01  0.595117
  2 S  1.43686555E-01  0.240706
 
  3 P  3.04972395E+01  0.003760
  3 P  6.03619960E+00  0.037679
  3 P  1.87604634E+00  0.173897
  3 P  7.21782647E-01  0.418036
  3 P  3.13470695E-01  0.425860
  3 P  1.43686555E-01  0.101708
 
  H (Hydrogen)
  ------------
            Exponent  Coefficients 
       -------------- ---------------------------------------------------------
  1 S  3.55232212E+01  0.009164
  1 S  6.51314373E+00  0.049361
  1 S  1.82214290E+00  0.168538
  1 S  6.25955266E-01  0.370563
  1 S  2.43076747E-01  0.416492
  1 S  1.00112428E-01  0.130334
 


 Summary of "ao basis" -> "ao basis" (cartesian)
 ------------------------------------------------------------------------------
       Tag                 Description            Shells   Functions and Types
 ---------------- ------------------------------  ------  ---------------------
 C                           sto-6g                  3        5   2s1p
 H                           sto-6g                  1        1   1s


                                 NWChem SCF Module
                                 -----------------
 
 

  ao basis        = "ao basis"
  functions       =     9
  atoms           =     5
  closed shells   =     5
  open shells     =     0
  charge          =   0.00
  wavefunction    = RHF 
  input vectors   = atomic
  output vectors  = ./ch4_sto6g.movecs
  use symmetry    = F
  symmetry adapt  = F


 Summary of "ao basis" -> "ao basis" (cartesian)
 ------------------------------------------------------------------------------
       Tag                 Description            Shells   Functions and Types
 ---------------- ------------------------------  ------  ---------------------
 C                           sto-6g                  3        5   2s1p
 H                           sto-6g                  1        1   1s



 Forming initial guess at       0.5s

 
      Superposition of Atomic Density Guess
      -------------------------------------
 
 Sum of atomic energies:         -39.43636399
 
      Non-variational initial energy
      ------------------------------

 Total energy =     -39.548920
 1-e energy   =     -79.449130
 2-e energy   =      26.460682
 HOMO         =      -0.383163
 LUMO         =       0.638575
 

 Starting SCF solution at       0.6s



 ----------------------------------------------
         Quadratically convergent ROHF

 Convergence threshold     :          1.000E-10
 Maximum no. of iterations :           30
 Final Fock-matrix accuracy:          1.000E-11
 ----------------------------------------------


              iter       energy          gnorm     gmax       time
             ----- ------------------- --------- --------- --------
                 1      -40.1049319846  2.17D-01  1.60D-01      0.0
                 2      -40.1101592305  3.60D-02  2.73D-02      0.0
                 3      -40.1102541109  5.76D-05  5.47D-05      0.1
                 4      -40.1102541110  1.12D-11  1.08D-11      0.1


       Final RHF  results 
       ------------------ 

         Total SCF energy =    -40.110254111001
      One-electron energy =    -79.788811033208
      Two-electron energy =     26.239028065191
 Nuclear repulsion energy =     13.439528857016

        Time for solution =      0.1s


             Final eigenvalues
             -----------------

              1      
    1  -11.1825
    2   -0.9110
    3   -0.5206
    4   -0.5206
    5   -0.5206
    6    0.7054
    7    0.7054
    8    0.7054
    9    0.7453
 
                       ROHF Final Molecular Orbital Analysis
                       -------------------------------------
 
 Vector    2  Occ=2.000000D+00  E=-9.110047D-01
              MO Center=  3.3D-16,  4.7D-16,  3.7D-16, r^2= 1.1D+00
   Bfn.  Coefficient  Atom+Function         Bfn.  Coefficient  Atom+Function  
  ----- ------------  ---------------      ----- ------------  ---------------
     2      0.626749  1 C  s                  1     -0.211806  1 C  s          
     6      0.181644  2 H  s                  7      0.181644  3 H  s          
     8      0.181644  4 H  s                  9      0.181644  5 H  s          
 
 Vector    3  Occ=2.000000D+00  E=-5.206200D-01
              MO Center= -1.4D-01,  1.4D-01, -2.7D-01, r^2= 1.1D+00
   Bfn.  Coefficient  Atom+Function         Bfn.  Coefficient  Atom+Function  
  ----- ------------  ---------------      ----- ------------  ---------------
     9      0.502959  5 H  s                  4      0.384002  1 C  py         
     3     -0.375587  1 C  px                 8     -0.293559  4 H  s          
     5     -0.199691  1 C  pz         
 
 Vector    4  Occ=2.000000D+00  E=-5.206200D-01
              MO Center= -3.2D-02, -3.4D-02,  3.1D-01, r^2= 1.1D+00
   Bfn.  Coefficient  Atom+Function         Bfn.  Coefficient  Atom+Function  
  ----- ------------  ---------------      ----- ------------  ---------------
     7     -0.446077  3 H  s                  3      0.419602  1 C  px         
     6      0.400673  2 H  s                  4      0.387890  1 C  py         
 
 Vector    5  Occ=2.000000D+00  E=-5.206200D-01
              MO Center=  1.8D-01, -1.1D-01, -3.5D-02, r^2= 1.2D+00
   Bfn.  Coefficient  Atom+Function         Bfn.  Coefficient  Atom+Function  
  ----- ------------  ---------------      ----- ------------  ---------------
     5      0.535395  1 C  pz                 8     -0.427910  4 H  s          
     6      0.316598  2 H  s                  7      0.244827  3 H  s          
     4      0.174595  1 C  py         
 
 Vector    6  Occ=0.000000D+00  E= 7.053884D-01
              MO Center= -6.0D-02,  3.0D-01, -7.4D-02, r^2= 1.2D+00
   Bfn.  Coefficient  Atom+Function         Bfn.  Coefficient  Atom+Function  
  ----- ------------  ---------------      ----- ------------  ---------------
     9      0.942785  5 H  s                  3      0.846795  1 C  px         
     6     -0.755203  2 H  s                  5      0.682733  1 C  pz         
     8     -0.184856  4 H  s                  4     -0.168972  1 C  py         
 
 Vector    7  Occ=0.000000D+00  E= 7.053884D-01
              MO Center=  2.7D-01, -1.4D-01, -1.6D-01, r^2= 1.2D+00
   Bfn.  Coefficient  Atom+Function         Bfn.  Coefficient  Atom+Function  
  ----- ------------  ---------------      ----- ------------  ---------------
     8      1.024332  4 H  s                  4      0.769662  1 C  py         
     5      0.680596  1 C  pz                 6     -0.585656  2 H  s          
     3     -0.395154  1 C  px                 9     -0.268776  5 H  s          
     7     -0.169900  3 H  s          
 
 Vector    8  Occ=0.000000D+00  E= 7.053884D-01
              MO Center= -2.1D-01, -1.6D-01,  2.3D-01, r^2= 1.2D+00
   Bfn.  Coefficient  Atom+Function         Bfn.  Coefficient  Atom+Function  
  ----- ------------  ---------------      ----- ------------  ---------------
     7      1.044577  3 H  s                  4      0.768639  1 C  py         
     3      0.581833  1 C  px                 5     -0.531415  1 C  pz         
     6     -0.454633  2 H  s                  9     -0.398663  5 H  s          
     8     -0.191282  4 H  s          
 
 Vector    9  Occ=0.000000D+00  E= 7.453202D-01
              MO Center= -3.1D-14,  2.2D-15,  1.6D-14, r^2= 1.5D+00
   Bfn.  Coefficient  Atom+Function         Bfn.  Coefficient  Atom+Function  
  ----- ------------  ---------------      ----- ------------  ---------------
     2      1.613459  1 C  s                  6     -0.662918  2 H  s          
     7     -0.662918  3 H  s                  8     -0.662918  4 H  s          
     9     -0.662918  5 H  s                  1     -0.231370  1 C  s          
 

 center of mass
 --------------
 x =   0.00000000 y =   0.00000000 z =   0.00000000

 moments of inertia (a.u.)
 ------------------
          11.395595055270           0.000000000000           0.000000000000
           0.000000000000          11.395595055270           0.000000000000
           0.000000000000           0.000000000000          11.395595055270
 
  Mulliken analysis of the total density
  --------------------------------------

    Atom       Charge   Shell Charges
 -----------   ------   -------------------------------------------------------
    1 C    6     6.26   2.00  1.18  3.09
    2 H    1     0.93   0.93
    3 H    1     0.93   0.93
    4 H    1     0.93   0.93
    5 H    1     0.93   0.93
 
       Multipole analysis of the density wrt the origin
       ------------------------------------------------
 
     L   x y z        total         open         nuclear
     -   - - -        -----         ----         -------
     0   0 0 0     -0.000000      0.000000     10.000000
 
     1   1 0 0      0.000000      0.000000      0.000000
     1   0 1 0      0.000000      0.000000      0.000000
     1   0 0 1     -0.000000      0.000000      0.000000
 
     2   2 0 0     -5.808791      0.000000      5.653558
     2   1 1 0     -0.000000      0.000000      0.000000
     2   1 0 1     -0.000000      0.000000      0.000000
     2   0 2 0     -5.808791      0.000000      5.653558
     2   0 1 1      0.000000      0.000000      0.000000
     2   0 0 2     -5.808791      0.000000      5.653558
 
 ------------------------------------
     Number of active orbitals      9
     Number of active alpha electrons      5
     Number of active beta electrons       5
 ------------------------------------
                   NWChem Extensible Many-Electron Theory Module
                   ---------------------------------------------
 
              ======================================================
                   This portion of the program was automatically
                  generated by a Tensor Contraction Engine (TCE).
                  The development of this portion of the program
                 and TCE was supported by US Department of Energy,
                Office of Science, Office of Basic Energy Science.
                      TCE is a product of Battelle and PNNL.
              Please cite: S.Hirata, J.Phys.Chem.A 107, 9887 (2003).
              ======================================================
 
            General Information
            -------------------
      Number of processors :    16
         Wavefunction type : Restricted Hartree-Fock
          No. of electrons :    10
           Alpha electrons :     5
            Beta electrons :     5
           No. of orbitals :    18
            Alpha orbitals :     9
             Beta orbitals :     9
        Alpha frozen cores :     0
         Beta frozen cores :     0
     Alpha frozen virtuals :     0
      Beta frozen virtuals :     0
         Spin multiplicity : singlet 
    Number of AO functions :     9
       Number of AO shells :     7
        Use of symmetry is : off
      Symmetry adaption is : off
         Schwarz screening : 0.10D-10
 
          Correlation Information
          -----------------------
          Calculation type : Coupled-cluster singles & doubles                           
   Perturbative correction : none                                                        
            Max iterations :      100
        Residual threshold : 0.10D-05
     T(0) DIIS level shift : 0.00D+00
     L(0) DIIS level shift : 0.00D+00
     T(1) DIIS level shift : 0.00D+00
     L(1) DIIS level shift : 0.00D+00
     T(R) DIIS level shift : 0.00D+00
     T(I) DIIS level shift : 0.00D+00
   CC-T/L Amplitude update :  5-th order DIIS
                I/O scheme : Global Array Library
        L-threshold :  0.10D-05
        EOM-threshold :  0.10D-05
 no EOMCCSD initial starts read in
 TCE RESTART OPTIONS
 READ_INT:   F
 WRITE_INT:  F
 READ_TA:    F
 WRITE_TA:   F
 READ_XA:    F
 WRITE_XA:   F
 READ_IN3:   F
 WRITE_IN3:  F
 SLICE:      F
 D4D5:       F
 
            Memory Information
            ------------------
          Available GA space size is     419430319 doubles
          Available MA space size is      26213236 doubles
 
 Maximum block size supplied by input
 Maximum block size         1 doubles

 tile_dim =      1

 Block   Spin    Irrep     Size     Offset   Alpha
 -------------------------------------------------
   1    alpha     a      1 doubles       0       1
   2    alpha     a      1 doubles       1       2
   3    alpha     a      1 doubles       2       3
   4    alpha     a      1 doubles       3       4
   5    alpha     a      1 doubles       4       5
   6    beta      a      1 doubles       5       1
   7    beta      a      1 doubles       6       2
   8    beta      a      1 doubles       7       3
   9    beta      a      1 doubles       8       4
  10    beta      a      1 doubles       9       5
  11    alpha     a      1 doubles      10      11
  12    alpha     a      1 doubles      11      12
  13    alpha     a      1 doubles      12      13
  14    alpha     a      1 doubles      13      14
  15    beta      a      1 doubles      14      11
  16    beta      a      1 doubles      15      12
  17    beta      a      1 doubles      16      13
  18    beta      a      1 doubles      17      14

 Global array virtual files algorithm will be used

 Parallel file system coherency ......... OK
 
 Fock matrix recomputed
 1-e file size   =               81
 1-e file name   = ./ch4_sto6g.f1
 Cpu & wall time / sec            0.0            0.0
 4-electron integrals stored in orbital form
 
 v2    file size   =             1035
 4-index algorithm nr.  13 is used
 imaxsize =       30
 imaxsize ichop =        0
 begin_one_electron_integrals
    1    1       -19.8681461807
    2    1         0.3697902230
    9    1         0.3983264451
    1    2         0.3697902230
    2    2        -5.3893118015
    9    2        -1.0926437130
    3    3        -4.8789825115
    6    3         0.8180494246
    7    3        -0.4853124705
    8    3        -0.2879025380
    4    4        -4.8789825115
    6    4        -0.4099381683
    7    4        -0.1626869174
    8    4        -0.8905641984
    5    5        -4.8789825115
    6    5        -0.3877715352
    7    5        -0.8518366623
    8    5         0.3341084608
    3    6         0.8180494246
    4    6        -0.4099381683
    5    6        -0.3877715352
    6    6        -4.3776796826
    3    7        -0.4853124705
    4    7        -0.1626869174
    5    7        -0.8518366623
    7    7        -4.3776796826
    3    8        -0.2879025380
    4    8        -0.8905641984
    5    8         0.3341084608
    8    8        -4.3776796826
    1    9         0.3983264451
    2    9        -1.0926437130
    9    9        -4.1327210863
 end_one_electron_integrals
 begin_two_electron_integrals
    1    1    1    1        3.5160841971
    2    1    1    1       -0.2969995793
    2    1    2    1        0.0400566189
    3    1    3    1        0.0089348393
    4    1    4    1        0.0089348393
    4    1    3    3        0.0001310045
    5    1    5    1        0.0089348393
    5    1    3    3       -0.0023199933
    5    1    4    3        0.0001339520
    5    1    4    4        0.0035536110
    6    1    3    1       -0.0113339584
    6    1    4    1        0.0056796350
    6    1    5    1        0.0053725195
    6    1    6    1        0.0213497756
    6    1    3    2       -0.0155882038
    6    1    4    2        0.0078115081
    6    1    5    2        0.0073891155
    6    1    3    3       -0.0045563225
    6    1    4    3       -0.0007467860
    6    1    5    3        0.0013244917
    6    1    4    4        0.0025869206
    6    1    5    4        0.0019747542
    6    1    5    5        0.0019694019
    7    1    3    1        0.0067239353
    7    1    4    1        0.0022540041
    7    1    5    1        0.0118020758
    7    1    7    1        0.0213497756
    7    1    3    2        0.0092477905
    7    1    4    2        0.0031000533
    7    1    5    2        0.0162320308
    7    1    3    3       -0.0002622095
    7    1    4    3       -0.0000554563
    7    1    5    3       -0.0036006988
    7    1    6    3        0.0013709684
    7    1    4    4        0.0026763916
    7    1    5    4        0.0015423528
    7    1    6    4       -0.0019811919
    7    1    5    5       -0.0024141821
    7    1    6    5       -0.0030068058
    7    1    6    6       -0.0006676836
    8    1    3    1        0.0039888487
    8    1    4    1        0.0123386403
    8    1    5    1       -0.0046290252
    8    1    8    1        0.0213497756
    8    1    3    2        0.0054860786
    8    1    4    2        0.0169699969
    8    1    5    2       -0.0063665478
    8    1    3    3        0.0023205848
    8    1    4    3       -0.0014860344
    8    1    5    3        0.0002273856
    8    1    6    3        0.0027537719
    8    1    7    3       -0.0012271698
    8    1    4    4       -0.0028524392
    8    1    5    4        0.0035657834
    8    1    6    4       -0.0016265601
    8    1    7    4       -0.0021082379
    8    1    5    5        0.0005318544
    8    1    6    5       -0.0016868185
    8    1    7    5       -0.0013015717
    8    1    6    6       -0.0007697802
    8    1    7    6       -0.0000786394
    8    1    7    7       -0.0004409960
    9    1    1    1       -0.3463659575
    9    1    2    1        0.0478158635
    9    1    9    1        0.0571979723
    9    1    2    2       -0.0105144768
    9    1    3    3       -0.0036244820
    9    1    6    3        0.0043008971
    9    1    7    3       -0.0025515316
    9    1    8    3       -0.0015136484
    9    1    4    4       -0.0036244820
    9    1    6    4       -0.0021552510
    9    1    7    4       -0.0008553269
    9    1    8    4       -0.0046821437
    9    1    5    5       -0.0036244820
    9    1    6    5       -0.0020387099
    9    1    7    5       -0.0044785336
    9    1    8    5        0.0017565761
    9    1    6    6       -0.0081150757
    9    1    7    7       -0.0081150757
    9    1    8    8       -0.0081150757
    2    2    1    1        0.7129557800
    2    2    2    1       -0.0095203156
    2    2    2    2        0.5030881200
    3    2    3    1        0.0136729491
    3    2    3    2        0.1082100294
    4    2    4    1        0.0136729491
    4    2    4    2        0.1082100294
    4    2    3    3        0.0019668638
    5    2    5    1        0.0136729491
    5    2    5    2        0.1082100294
    5    2    3    3       -0.0348316985
    5    2    4    3        0.0020111159
    5    2    4    4        0.0533528736
    6    2    3    1       -0.0080101788
    6    2    4    1        0.0040140338
    6    2    5    1        0.0037969825
    6    2    6    1        0.0142074309
    6    2    3    2       -0.0150681498
    6    2    4    2        0.0075509004
    6    2    5    2        0.0071425997
    6    2    6    2        0.0476648298
    6    2    3    3        0.0203910762
    6    2    4    3        0.0033421188
    6    2    5    3       -0.0059275461
    6    2    4    4       -0.0115773401
    6    2    5    4       -0.0088376892
    6    2    5    5       -0.0088137362
    7    2    3    1        0.0047520841
    7    2    4    1        0.0015929982
    7    2    5    1        0.0083410167
    7    2    7    1        0.0142074309
    7    2    3    2        0.0089392655
    7    2    4    2        0.0029966293
    7    2    5    2        0.0156904975
    7    2    7    2        0.0476648298
    7    2    3    3        0.0011734757
    7    2    4    3        0.0002481854
    7    2    5    3        0.0161143387
    7    2    6    3       -0.0016990418
    7    2    4    4       -0.0119777529
    7    2    5    4       -0.0069025476
    7    2    6    4        0.0024552921
    7    2    5    5        0.0108042773
    7    2    6    5        0.0037263359
    7    2    6    6       -0.0185771232
    8    2    3    1        0.0028190849
    8    2    4    1        0.0087202291
    8    2    5    1       -0.0032715242
    8    2    8    1        0.0142074309
    8    2    3    2        0.0053030519
    8    2    4    2        0.0164038436
    8    2    5    2       -0.0061541469
    8    2    8    2        0.0476648298
    8    2    3    3       -0.0103853978
    8    2    4    3        0.0066505041
    8    2    5    3       -0.0010176272
    8    2    6    3       -0.0034127509
    8    2    7    3        0.0015208322
    8    2    4    4        0.0127656253
    8    2    5    4       -0.0159580804
    8    2    6    4        0.0020157967
    8    2    7    4        0.0026127403
    8    2    5    5       -0.0023802276
    8    2    6    5        0.0020904750
    8    2    7    5        0.0016130385
    8    2    6    6       -0.0214177818
    8    2    7    6       -0.0021880044
    8    2    7    7       -0.0122699381
    9    2    1    1        0.3002257520
    9    2    2    1       -0.0114353155
    9    2    9    1       -0.0126157653
    9    2    2    2        0.0889468211
    9    2    9    2        0.0751048452
    9    2    3    3        0.0700976455
    9    2    6    3       -0.0596648999
    9    2    7    3        0.0353965410
    9    2    8    3        0.0209983353
    9    2    4    4        0.0700976455
    9    2    6    4        0.0298990734
    9    2    7    4        0.0118656628
    9    2    8    4        0.0649538062
    9    2    5    5        0.0700976455
    9    2    6    5        0.0282823374
    9    2    7    5        0.0621291913
    9    2    8    5       -0.0243683906
    9    2    6    6        0.0832627958
    9    2    7    7        0.0832627958
    9    2    8    8        0.0832627958
    3    3    1    1        0.6350831365
    3    3    2    1       -0.0037085802
    3    3    3    1        0.0035805726
    3    3    2    2        0.4856656878
    3    3    3    2        0.0537576668
    3    3    3    3        0.5475338592
    4    3    3    1        0.0001310045
    4    3    4    1       -0.0013746037
    4    3    3    2        0.0019668638
    4    3    4    2       -0.0206378962
    4    3    3    3       -0.0000663388
    4    3    4    3        0.0192114097
    5    3    3    1       -0.0023199933
    5    3    4    1        0.0001339520
    5    3    5    1       -0.0022059689
    5    3    3    2       -0.0348316985
    5    3    4    2        0.0020111159
    5    3    5    2       -0.0331197706
    5    3    3    3       -0.0096618911
    5    3    4    3       -0.0023870608
    5    3    5    3        0.0446248183
    5    3    4    4       -0.0145237919
    6    3    1    1       -0.2069550591
    6    3    2    1        0.0043783722
    6    3    3    1        0.0034780293
    6    3    4    1        0.0005700527
    6    3    5    1       -0.0010110393
    6    3    6    1       -0.0044786337
    6    3    2    2       -0.0665246461
    6    3    3    2        0.0523828482
    6    3    4    2        0.0085856038
    6    3    5    2       -0.0152273350
    6    3    6    2        0.0055503730
    6    3    3    3       -0.0179791724
    6    3    4    3        0.0032348170
    6    3    5    3       -0.0133972448
    6    3    6    3        0.0993171305
    6    3    4    4       -0.0727564112
    6    3    5    4        0.0053732147
    6    3    5    5       -0.0638762749
    7    3    1    1        0.1227772651
    7    3    2    1       -0.0025974942
    7    3    3    1        0.0002001553
    7    3    4    1        0.0000423321
    7    3    5    1        0.0027485623
    7    3    6    1        0.0013709684
    7    3    7    1        0.0036462763
    7    3    2    2        0.0394661244
    7    3    3    2        0.0030145538
    7    3    4    2        0.0006375662
    7    3    5    2        0.0413962927
    7    3    6    2       -0.0016990418
    7    3    7    2       -0.0045188321
    7    3    3    3        0.0204633652
    7    3    4    3        0.0028914764
    7    3    5    3       -0.0104618326
    7    3    6    3       -0.0353248042
    7    3    7    3        0.0508625424
    7    3    4    4        0.0561181436
    7    3    5    4        0.0068787057
    7    3    6    4        0.0004936101
    7    3    5    5        0.0151428549
    7    3    6    5       -0.0062610778
    7    3    6    6        0.0376734972
    8    3    1    1        0.0728353141
    8    3    2    1       -0.0015409148
    8    3    3    1       -0.0017713983
    8    3    4    1        0.0011343515
    8    3    5    1       -0.0001735729
    8    3    6    1        0.0027537719
    8    3    7    1       -0.0012271698
    8    3    8    1        0.0008323574
    8    3    2    2        0.0234125395
    8    3    3    2       -0.0266791565
    8    3    4    2        0.0170845493
    8    3    5    2       -0.0026141932
    8    3    6    2       -0.0034127509
    8    3    7    2        0.0015208322
    8    3    8    2       -0.0010315410
    8    3    3    3        0.0046066031
    8    3    4    3        0.0045300719
    8    3    5    3        0.0105527995
    8    3    6    3       -0.0322459906
    8    3    7    3        0.0082969652
    8    3    8    3        0.0308368641
    8    3    4    4        0.0185007416
    8    3    5    4        0.0113272141
    8    3    6    4       -0.0072809860
    8    3    7    4        0.0011031064
    8    3    5    5        0.0313064169
    8    3    6    5        0.0107946426
    8    3    7    5       -0.0033615360
    8    3    6    6        0.0104258983
    8    3    7    6        0.0077464138
    8    3    7    7        0.0370334285
    9    3    3    1        0.0068733192
    9    3    6    1       -0.0083229258
    9    3    7    1        0.0049376230
    9    3    8    1        0.0029291524
    9    3    3    2       -0.0101584595
    9    3    6    2       -0.0342396780
    9    3    7    2        0.0203128836
    9    3    8    2        0.0120502379
    9    3    3    3       -0.0284739751
    9    3    4    3       -0.0010417943
    9    3    5    3        0.0184494040
    9    3    6    3       -0.0250665277
    9    3    7    3       -0.0014425408
    9    3    8    3        0.0127666562
    9    3    9    3        0.0470372581
    9    3    4    4        0.0109313327
    9    3    5    4       -0.0010652334
    9    3    6    4       -0.0041084302
    9    3    7    4       -0.0003050917
    9    3    8    4       -0.0081753922
    9    3    5    5        0.0175426423
    9    3    6    5        0.0072866678
    9    3    7    5       -0.0198091809
    9    3    8    5        0.0012509581
    9    3    6    6       -0.0333131959
    9    3    7    6        0.0101976050
    9    3    8    6        0.0204832430
    9    3    7    7        0.0271219136
    9    3    8    7       -0.0091279957
    9    3    8    8        0.0061912823
    4    4    1    1        0.6350831365
    4    4    2    1       -0.0037085802
    4    4    3    1       -0.0013746037
    4    4    4    1       -0.0008761440
    4    4    2    2        0.4856656878
    4    4    3    2       -0.0206378962
    4    4    4    2       -0.0131541687
    4    4    3    3        0.4248713201
    4    4    4    3        0.0045705446
    4    4    4    4        0.5385933880
    5    4    3    1        0.0001339520
    5    4    4    1        0.0035536110
    5    4    5    1        0.0007451394
    5    4    3    2        0.0020111159
    5    4    4    2        0.0533528736
    5    4    5    2        0.0111873050
    5    4    3    3       -0.0023870608
    5    4    4    3       -0.0145237919
    5    4    5    3       -0.0045042058
    5    4    4    4       -0.0019791884
    5    4    5    4        0.0535652895
    6    4    1    1        0.1037086212
    6    4    2    1       -0.0021940751
    6    4    3    1        0.0005700527
    6    4    4    1       -0.0019747034
    6    4    5    1       -0.0015074115
    6    4    6    1       -0.0027740063
    6    4    2    2        0.0333366063
    6    4    3    2        0.0085856038
    6    4    4    2       -0.0297411495
    6    4    5    2       -0.0227032319
    6    4    6    2        0.0034378274
    6    4    3    3        0.0390346549
    6    4    4    3       -0.0013162792
    6    4    5    3        0.0053732147
    6    4    6    3       -0.0185418982
    6    4    4    4        0.0184165639
    6    4    5    4       -0.0205126422
    6    4    6    4        0.0428024309
    6    4    5    5        0.0200273541
    7    4    1    1        0.0411575139
    7    4    2    1       -0.0008707345
    7    4    3    1        0.0000423321
    7    4    4    1       -0.0020430004
    7    4    5    1       -0.0011773416
    7    4    6    1       -0.0019811919
    7    4    7    1       -0.0019603981
    7    4    2    2        0.0132298725
    7    4    3    2        0.0006375662
    7    4    4    2       -0.0307697743
    7    4    5    2       -0.0177320265
    7    4    6    2        0.0024552921
    7    4    7    2        0.0024295224
    7    4    3    3        0.0170989002
    7    4    4    3        0.0137358793
    7    4    5    3        0.0068787057
    7    4    6    3       -0.0063723586
    7    4    7    3       -0.0031842527
    7    4    4    4        0.0051393558
    7    4    5    4       -0.0154376552
    7    4    6    4        0.0209800574
    7    4    7    4        0.0296543207
    7    4    5    5        0.0085096743
    7    4    6    5        0.0205698070
    7    4    6    6       -0.0004011851
    8    4    1    1        0.2253002824
    8    4    2    1       -0.0047664865
    8    4    3    1        0.0011343515
    8    4    4    1        0.0021773848
    8    4    5    1       -0.0027219099
    8    4    6    1       -0.0016265601
    8    4    7    1       -0.0021082379
    8    4    8    1        0.0047344045
    8    4    2    2        0.0724216244
    8    4    3    2        0.0170845493
    8    4    4    2        0.0327937479
    8    4    5    2       -0.0409948791
    8    4    6    2        0.0020157967
    8    4    7    2        0.0026127403
    8    4    8    2       -0.0058673498
    8    4    3    3        0.0823029081
    8    4    4    3       -0.0066417433
    8    4    5    3        0.0113272141
    8    4    6    3       -0.0247863310
    8    4    7    3        0.0090718577
    8    4    8    3        0.0217261509
    8    4    4    4        0.0290085046
    8    4    5    4        0.0143142332
    8    4    6    4        0.0285267057
    8    4    7    4        0.0075526695
    8    4    8    4        0.1085597854
    8    4    5    5        0.0570057838
    8    4    6    5        0.0203855008
    8    4    7    5        0.0368826033
    8    4    6    6        0.0783283434
    8    4    7    6       -0.0101177010
    8    4    7    7        0.0811944083
    9    4    4    1        0.0068733192
    9    4    6    1        0.0041707565
    9    4    7    1        0.0016551948
    9    4    8    1        0.0090606991
    9    4    4    2       -0.0101584595
    9    4    6    2        0.0171580720
    9    4    7    2        0.0068093045
    9    4    8    2        0.0372748033
    9    4    3    3       -0.0010417943
    9    4    4    3        0.0109313327
    9    4    5    3       -0.0010652334
    9    4    6    3       -0.0041084302
    9    4    7    3       -0.0003050917
    9    4    8    3       -0.0081753922
    9    4    4    4        0.0069674057
    9    4    5    4       -0.0282595671
    9    4    6    4        0.0142318979
    9    4    7    4        0.0147241211
    9    4    8    4       -0.0156926440
    9    4    9    4        0.0470372581
    9    4    5    5       -0.0059256114
    9    4    6    5        0.0108640750
    9    4    7    5        0.0084852265
    9    4    8    5        0.0196170943
    9    4    6    6       -0.0206337517
    9    4    7    6       -0.0147365999
    9    4    8    6       -0.0120987599
    9    4    7    7       -0.0145819308
    9    4    8    7       -0.0156815998
    9    4    8    8        0.0352156825
    5    5    1    1        0.6350831365
    5    5    2    1       -0.0037085802
    5    5    3    1       -0.0022059689
    5    5    4    1        0.0007451394
    5    5    5    1       -0.0012336177
    5    5    2    2        0.4856656878
    5    5    3    2       -0.0331197706
    5    5    4    2        0.0111873050
    5    5    5    2       -0.0185211750
    5    5    3    3        0.4502847287
    5    5    4    3       -0.0045042058
    5    5    5    3        0.0241856829
    5    5    4    4        0.4592251999
    5    5    5    4        0.0043662492
    5    5    5    5        0.5131799793
    6    5    1    1        0.0981007731
    6    5    2    1       -0.0020754347
    6    5    3    1       -0.0010110393
    6    5    4    1       -0.0015074115
    6    5    5    1       -0.0015033259
    6    5    6    1       -0.0005573937
    6    5    2    2        0.0315339922
    6    5    3    2       -0.0152273350
    6    5    4    2       -0.0227032319
    6    5    5    2       -0.0226416987
    6    5    6    2        0.0006907783
    6    5    3    3        0.0204667845
    6    5    4    3        0.0053732147
    6    5    5    3        0.0075638571
    6    5    6    3       -0.0315453254
    6    5    4    4        0.0133513871
    6    5    5    4       -0.0157724839
    6    5    6    4        0.0246791047
    6    5    5    5        0.0394708937
    6    5    6    5        0.0388969756
    7    5    1    1        0.2155027576
    7    5    2    1       -0.0045592086
    7    5    3    1        0.0027485623
    7    5    4    1       -0.0011773416
    7    5    5    1        0.0018428450
    7    5    6    1       -0.0030068058
    7    5    7    1        0.0040441414
    7    5    2    2        0.0692722601
    7    5    3    2        0.0413962927
    7    5    4    2       -0.0177320265
    7    5    5    2        0.0277552205
    7    5    6    2        0.0037263359
    7    5    7    2       -0.0050119064
    7    5    3    3        0.0639289337
    7    5    4    3        0.0068787057
    7    5    5    3       -0.0272394094
    7    5    6    3       -0.0245622783
    7    5    7    3        0.0461662159
    7    5    4    4        0.0589531111
    7    5    5    4       -0.0056977495
    7    5    6    4        0.0264862385
    7    5    7    4        0.0113255227
    7    5    5    5        0.0381156228
    7    5    6    5        0.0143447468
    7    5    7    5        0.1004996739
    7    5    6    6        0.0765732254
    8    5    1    1       -0.0845247661
    8    5    2    1        0.0017882186
    8    5    3    1       -0.0001735729
    8    5    4    1       -0.0027219099
    8    5    5    1       -0.0004059865
    8    5    6    1       -0.0016868185
    8    5    7    1       -0.0013015717
    8    5    8    1       -0.0034867476
    8    5    2    2       -0.0271700541
    8    5    3    2       -0.0026141932
    8    5    4    2       -0.0409948791
    8    5    5    2       -0.0061145914
    8    5    6    2        0.0020904750
    8    5    7    2        0.0016130385
    8    5    8    2        0.0043211281
    8    5    3    3       -0.0186248416
    8    5    4    3        0.0113272141
    8    5    5    3        0.0061639320
    8    5    6    3        0.0141378782
    8    5    7    3       -0.0117858142
    8    5    8    3       -0.0146208905
    8    5    4    4       -0.0148634079
    8    5    5    4       -0.0207670524
    8    5    6    4        0.0104122717
    8    5    7    4        0.0200715901
    8    5    8    4       -0.0360046274
    8    5    5    5       -0.0296584608
    8    5    6    5        0.0037192849
    8    5    7    5       -0.0158496347
    8    5    8    5        0.0416198875
    8    5    6    6       -0.0386195673
    8    5    7    6       -0.0118888740
    8    5    7    7       -0.0283761861
    9    5    5    1        0.0068733192
    9    5    6    1        0.0039452307
    9    5    7    1        0.0086666809
    9    5    8    1       -0.0033992566
    9    5    5    2       -0.0101584595
    9    5    6    2        0.0162302816
    9    5    7    2        0.0356538519
    9    5    8    2       -0.0139841992
    9    5    3    3        0.0184494040
    9    5    4    3       -0.0010652334
    9    5    5    3        0.0175426423
    9    5    6    3        0.0072866678
    9    5    7    3       -0.0198091809
    9    5    8    3        0.0012509581
    9    5    4    4       -0.0282595671
    9    5    5    4       -0.0059256114
    9    5    6    4        0.0108640750
    9    5    7    4        0.0084852265
    9    5    8    4        0.0196170943
    9    5    5    5        0.0098101630
    9    5    6    5        0.0108346298
    9    5    7    5       -0.0132815802
    9    5    8    5        0.0029259878
    9    5    9    5        0.0470372581
    9    5    6    6       -0.0041460336
    9    5    7    6       -0.0223653721
    9    5    8    6       -0.0125469772
    9    5    7    7        0.0300813333
    9    5    8    7       -0.0096814152
    9    5    8    8       -0.0259352996
    6    6    1    1        0.7329369671
    6    6    2    1       -0.0082331500
    6    6    3    1       -0.0002427784
    6    6    4    1       -0.0001503738
    6    6    5    1       -0.0000302153
    6    6    6    1        0.0004976827
    6    6    2    2        0.4932813113
    6    6    3    2        0.0288370802
    6    6    4    2        0.0178613049
    6    6    5    2        0.0035889533
    6    6    6    2        0.0138471467
    6    6    3    3        0.5149460314
    6    6    4    3       -0.0120873055
    6    6    5    3       -0.0271064840
    6    6    6    3       -0.0413075877
    6    6    4    4        0.4646494059
    6    6    5    4        0.0235104101
    6    6    6    4        0.0291863401
    6    6    5    5        0.4607358859
    6    6    6    5        0.0164450836
    6    6    6    6        0.5558299239
    7    6    3    1        0.0000743177
    7    6    4    1       -0.0001073967
    7    6    5    1       -0.0001629934
    7    6    6    1       -0.0006676836
    7    6    7    1       -0.0004778312
    7    6    3    2       -0.0088274074
    7    6    4    2        0.0127565219
    7    6    5    2        0.0193602568
    7    6    6    2       -0.0185771232
    7    6    7    2       -0.0132948151
    7    6    3    3       -0.0292748980
    7    6    4    3       -0.0041396752
    7    6    5    3       -0.0106771620
    7    6    6    3       -0.0074854415
    7    6    7    3        0.0066797073
    7    6    4    4        0.0217542554
    7    6    5    4        0.0210038148
    7    6    6    4       -0.0155394084
    7    6    7    4       -0.0100600767
    7    6    5    5        0.0075206426
    7    6    6    5       -0.0026912526
    7    6    7    5        0.0029269707
    7    6    6    6        0.0014867289
    7    6    7    6        0.0330302333
    8    6    3    1        0.0001492769
    8    6    4    1       -0.0000881728
    8    6    5    1       -0.0000914393
    8    6    6    1       -0.0007697802
    8    6    7    1       -0.0000786394
    8    6    8    1       -0.0000198514
    8    6    3    2       -0.0177310193
    8    6    4    2        0.0104731143
    8    6    5    2        0.0108611071
    8    6    6    2       -0.0214177818
    8    6    7    2       -0.0021880044
    8    6    8    2       -0.0005523315
    8    6    3    3       -0.0300005420
    8    6    4    3       -0.0100579267
    8    6    5    3        0.0089785950
    8    6    6    3       -0.0163637968
    8    6    7    3        0.0077464138
    8    6    8    3        0.0036148526
    8    6    4    4        0.0224925638
    8    6    5    4        0.0145405542
    8    6    6    4       -0.0045397808
    8    6    7    4       -0.0101177010
    8    6    8    4       -0.0035851195
    8    6    5    5        0.0075079782
    8    6    6    5       -0.0075303527
    8    6    7    5       -0.0118888740
    8    6    8    5       -0.0046712684
    8    6    6    6       -0.0099151334
    8    6    7    6        0.0173923386
    8    6    8    6        0.0304779081
    8    6    7    7        0.0092337808
    9    6    3    1       -0.0116862750
    9    6    4    1        0.0058561867
    9    6    5    1        0.0055395245
    9    6    6    1        0.0203406409
    9    6    3    2       -0.0795217044
    9    6    4    2        0.0398496483
    9    6    5    2        0.0376948537
    9    6    6    2        0.0089304190
    9    6    3    3       -0.0546806482
    9    6    4    3       -0.0089622156
    9    6    5    3        0.0158952897
    9    6    6    3       -0.0493055096
    9    6    7    3        0.0150930614
    9    6    8    3        0.0303164169
    9    6    9    3        0.0148704188
    9    6    4    4        0.0310457600
    9    6    5    4        0.0236991206
    9    6    6    4       -0.0305391787
    9    6    7    4       -0.0218110436
    9    6    8    4       -0.0179068836
    9    6    9    4       -0.0074518141
    9    6    5    5        0.0236348882
    9    6    6    5       -0.0061363762
    9    6    7    5       -0.0331020797
    9    6    8    5       -0.0185702719
    9    6    9    5       -0.0070488713
    9    6    6    6       -0.0174978194
    9    6    7    6        0.0234748107
    9    6    8    6        0.0270643829
    9    6    9    6        0.1022124809
    9    6    7    7        0.0167998708
    9    6    8    7        0.0027648517
    9    6    8    8        0.0006979486
    7    7    1    1        0.7329369671
    7    7    2    1       -0.0082331500
    7    7    3    1        0.0001976579
    7    7    4    1       -0.0001062696
    7    7    5    1        0.0002192254
    7    7    6    1       -0.0004778312
    7    7    7    1        0.0010545457
    7    7    2    2        0.4932813113
    7    7    3    2       -0.0234776873
    7    7    4    2        0.0126226349
    7    7    5    2       -0.0260394656
    7    7    6    2       -0.0132948151
    7    7    7    2        0.0293408829
    7    7    3    3        0.4719258966
    7    7    4    3       -0.0056023305
    7    7    5    3        0.0409829513
    7    7    6    3       -0.0694408256
    7    7    7    3        0.0209300668
    7    7    4    4        0.4535933122
    7    7    5    4        0.0090940872
    7    7    6    4        0.0280851880
    7    7    7    4        0.0154915542
    7    7    5    5        0.5148121144
    7    7    6    5        0.0390096021
    7    7    7    5        0.0383464275
    7    7    6    6        0.4731705125
    7    7    7    6       -0.0047222264
    7    7    7    7        0.5636538875
    8    7    3    1       -0.0000665226
    8    7    4    1       -0.0001142837
    8    7    5    1       -0.0000705558
    8    7    6    1       -0.0000786394
    8    7    7    1       -0.0004409960
    8    7    8    1       -0.0003868621
    8    7    3    2        0.0079015158
    8    7    4    2        0.0135745472
    8    7    5    2        0.0083805753
    8    7    6    2       -0.0021880044
    8    7    7    2       -0.0122699381
    8    7    8    2       -0.0107637597
    8    7    3    3        0.0056756856
    8    7    4    3       -0.0004931980
    8    7    5    3       -0.0095480494
    8    7    6    3        0.0077464138
    8    7    7    3        0.0102437335
    8    7    8    3        0.0049540297
    8    7    4    4        0.0047095388
    8    7    5    4        0.0227714129
    8    7    6    4       -0.0101177010
    8    7    7    4       -0.0016737160
    8    7    8    4        0.0062154692
    8    7    5    5       -0.0103852244
    8    7    6    5       -0.0118888740
    8    7    7    5        0.0027130285
    8    7    8    5       -0.0033612410
    8    7    6    6        0.0173923386
    8    7    7    6        0.0092337808
    8    7    8    6        0.0032354975
    8    7    7    7       -0.0080772048
    8    7    8    7        0.0226539445
    9    7    3    1        0.0069329491
    9    7    4    1        0.0023240699
    9    7    5    1        0.0121689438
    9    7    7    1        0.0203406409
    9    7    3    2        0.0471767031
    9    7    4    2        0.0158146202
    9    7    5    2        0.0828061254
    9    7    7    2        0.0089304190
    9    7    3    3       -0.0031467888
    9    7    4    3       -0.0006655333
    9    7    5    3       -0.0432121619
    9    7    6    3        0.0150930614
    9    7    7    3        0.0401420439
    9    7    8    3       -0.0135099761
    9    7    9    3       -0.0088219605
    9    7    4    4        0.0321195059
    9    7    5    4        0.0185098507
    9    7    6    4       -0.0218110436
    9    7    7    4       -0.0215821242
    9    7    8    4       -0.0232096996
    9    7    9    4       -0.0029573062
    9    7    5    5       -0.0289727172
    9    7    6    5       -0.0331020797
    9    7    7    5        0.0445221609
    9    7    8    5       -0.0143290699
    9    7    9    5       -0.0154845998
    9    7    6    6        0.0234748107
    9    7    7    6        0.0167998708
    9    7    8    6        0.0027648517
    9    7    7    7       -0.0370763366
    9    7    8    7        0.0155047944
    9    7    9    7        0.1022124809
    9    7    8    8        0.0136015259
    8    8    1    1        0.7329369671
    8    8    2    1       -0.0082331500
    8    8    3    1        0.0000451206
    8    8    4    1        0.0002566433
    8    8    5    1       -0.0001890101
    8    8    6    1       -0.0000198514
    8    8    7    1       -0.0003868621
    8    8    8    1        0.0012107761
    8    8    2    2        0.4932813113
    8    8    3    2       -0.0053593928
    8    8    4    2       -0.0304839398
    8    8    5    2        0.0224505123
    8    8    6    2       -0.0005523315
    8    8    7    2       -0.0107637597
    8    8    8    2        0.0336877199
    8    8    3    3        0.4534593952
    8    8    4    3        0.0176896360
    8    8    5    3       -0.0138764673
    8    8    6    3       -0.0725056803
    8    8    7    3        0.0501129684
    8    8    8    3        0.0170347209
    8    8    4    4        0.5220886051
    8    8    5    4       -0.0326044973
    8    8    6    4        0.0345601452
    8    8    7    4        0.0213536924
    8    8    8    4        0.0399756283
    8    8    5    5        0.4647833228
    8    8    6    5        0.0314113631
    8    8    7    5        0.0759032371
    8    8    8    5       -0.0078490437
    8    8    6    6        0.4706181873
    8    8    7    6        0.0032354975
    8    8    8    6        0.0006813527
    8    8    7    7        0.4627942237
    8    8    8    7       -0.0093151337
    8    8    8    8        0.5662062127
    9    8    3    1        0.0041128423
    9    8    4    1        0.0127221875
    9    8    5    1       -0.0047729187
    9    8    8    1        0.0203406409
    9    8    3    2        0.0279866960
    9    8    4    2        0.0865707875
    9    8    5    2       -0.0324783240
    9    8    8    2        0.0089304190
    9    8    3    3        0.0278494512
    9    8    4    3       -0.0178339717
    9    8    5    3        0.0027288661
    9    8    6    3        0.0303164169
    9    8    7    3       -0.0135099761
    9    8    8    3        0.0091634657
    9    8    9    3       -0.0052334629
    9    8    4    4       -0.0342322621
    9    8    5    4        0.0427931401
    9    8    6    4       -0.0179068836
    9    8    7    4       -0.0232096996
    9    8    8    4        0.0521213028
    9    8    9    4       -0.0161885850
    9    8    5    5        0.0063828110
    9    8    6    5       -0.0185702719
    9    8    7    5       -0.0143290699
    9    8    8    5       -0.0383857847
    9    8    9    5        0.0060733895
    9    8    6    6        0.0270643829
    9    8    7    6        0.0027648517
    9    8    8    6        0.0006979486
    9    8    7    7        0.0155047944
    9    8    8    7        0.0136015259
    9    8    8    8       -0.0425691772
    9    8    9    8        0.1022124809
    9    9    1    1        0.7174371867
    9    9    2    1       -0.0140940309
    9    9    9    1       -0.0155035759
    9    9    2    2        0.4722318837
    9    9    9    2        0.0690238590
    9    9    3    3        0.4620196181
    9    9    6    3       -0.0482001873
    9    9    7    3        0.0285950351
    9    9    8    3        0.0169634693
    9    9    4    4        0.4620196181
    9    9    6    4        0.0241539153
    9    9    7    4        0.0095856554
    9    9    8    4        0.0524728212
    9    9    5    5        0.4620196181
    9    9    6    5        0.0228478379
    9    9    7    5        0.0501909609
    9    9    8    5       -0.0196859626
    9    9    6    6        0.4805460694
    9    9    7    7        0.4805460694
    9    9    8    8        0.4805460694
    9    9    9    9        0.4667961177
 end_two_electron_integrals
 enrep_tce =    13.4395288570157     
  EHF(A)             =       -40.11025411
  EHF(total)         =       -40.11025411
  Shift (HFtot-HFA)  =         0.00000000
 Cpu & wall time / sec            0.2            0.2
 T1-number-of-tasks                    20
 
 t1 file size   =               20
 t1 file name   = ./ch4_sto6g.t1
 t1 file handle =       -998
 T2-number-of-boxes                   550
 
 t2 file size   =              550
 t2 file name   = ./ch4_sto6g.t2
 t2 file handle =       -996

 CCSD iterations
 -----------------------------------------------------------------
 Iter          Residuum       Correlation     Cpu    Wall    V2*C2
 -----------------------------------------------------------------
    1   0.1138995785849  -0.0574330039069     0.3     0.4     0.0
    2   0.0422281733321  -0.0724801196818     0.4     0.4     0.0
    3   0.0171962897212  -0.0773619240388     0.4     0.4     0.0
    4   0.0074342592354  -0.0791458270690     0.4     0.4     0.0
    5   0.0033607368832  -0.0798435642202     0.4     0.4     0.0
 MICROCYCLE DIIS UPDATE:                     5                     5
    6   0.0000661145051  -0.0803439882141     0.4     0.4     0.0
    7   0.0000167687868  -0.0803425052367     0.4     0.4     0.0
    8   0.0000055625304  -0.0803424138860     0.4     0.4     0.0
    9   0.0000020814565  -0.0803424220058     0.4     0.4     0.0
   10   0.0000008501115  -0.0803424356759     0.4     0.4     0.0
 -----------------------------------------------------------------
 Iterations converged
 CCSD correlation energy / hartree =        -0.080342435675863
 CCSD total energy / hartree       =       -40.190596546677028

 Singles contributions

 Doubles contributions
 Ground state specisication for QC:
 exp(T)|Ref>~(1+T)|Ref>
 ------- a(p)+/a(q) strings ----------

 singles norm

 doubles norm

 Reference string
   1.00000000000000      :(1a)+ (2a)+ (3a)+ (4a)+ (5a)+ (1b)+ (2b)+ (3b)+ (4b)+ 
 (5b)+ |0>

 Singles strings

 Doubles strings
 -------------------------------------

 Task  times  cpu:        4.0s     wall:        4.9s
 
 
                                NWChem Input Module
                                -------------------
 
 
 
                            NWChem Direct MCSCF Module
                            --------------------------
 
 
     -----------------------------------
       Basis functions:              9
       Inactive shells:              0
       Active shells:                9
       Active electrons:            10
       Symmetry:                    a       
       Multiplicity:                 1
       Orbital rotations:            0
     -----------------------------------

     -----------------------------------
       E2 extrapolation:             F
       Conjugacy:                    T
       Micro CI relax:               T
       Canonical orbitals:           T
       Maximum iterations:          20
       Converge threshold:    1.00E-04
       Conjugacy resets:            20
       Initial levelshift:        0.10
     -----------------------------------

   input molecular orbitals = ./ch4_sto6g.movecs
  output molecular orbtials = ./ch4_sto6g.movecs

       No. of determinants:         15876


  Starting Orbital Energies
   -11.182513    -0.911005    -0.520620    -0.520620    -0.520620     0.705388
     0.705388     0.705388     0.745320

  Orbital Symmetry Irreps
a    a    a    a    a    a    a    a    a   



          %%%%% MacroIteration   1 %%%%%


          Number of sigma calls:       11
                       o<<<<< (aa):             0.01
                       o<<<<< (bb):             0.01
                       o<<<<< (ab):             0.01
                       o<<<<< (total)           0.03
                       o<<<<< (aa) ff           0.00
                       o<<<<< (aa) gop          0.00
                       o<<<<< (aa) dot          0.00
                       o<<<<< (ab) str          0.00
                       o<<<<< (ab) gath         0.00
                       o<<<<< (ab) dotab        0.00
                       o<<<<< (ab) scat         0.00
                       o<<<<< (ab) sync         0.00
                       o<<<<< Density           0.00
                       o<<<<< Density one       0.00
                       o<<<<< Density two       0.00
                       o<<<<< Density ab        0.00
                       o<<<<< Spin adapt        0.09
                       o<<<<< Symm adapt        0.00

                       o<<<<< (ab) max sync:      0.00

           >>>| Valence CI:            -53.630361469674
           >>>| MCSCF energy:          -40.190832612658
           >>>| Gradient norm:          0.000000000D+00




     ==============================
            MCSCF Converged
     ==============================



          Canonical Eigenvalues

              1      
    1  -11.1825
    2   -0.9110
    3   -0.5206
    4   -0.5206
    5   -0.5206
    6    0.7054
    7    0.7054
    8    0.7054
    9    0.7453
 

          Converged CI vector

   Index           Coefficient          Config. Occupation
         1          0.97791405          1  2  3  4  5  1  2  3  4  5
       763         -0.05790910          1  2  3  4  7  1  2  3  4  7
       765         -0.02889398          1  2  3  4  7  1  2  4  5  7
       816          0.02827795          1  2  3  4  7  1  3  4  5  9
      2668         -0.02094747          1  2  3  4  8  1  2  3  4  8
      2669         -0.02250244          1  2  3  4  8  1  2  3  5  8
      7113         -0.02562026          1  2  3  4  9  1  2  3  4  9
      7066          0.02183990          1  2  3  4  9  1  3  4  5  7
       255         -0.02174604          1  2  3  5  6  1  2  3  5  6
      2794         -0.02250244          1  2  3  5  8  1  2  3  4  8
      2795         -0.06294767          1  2  3  5  8  1  2  3  5  8
      2832         -0.02956356          1  2  3  5  8  1  3  4  5  9
      7240         -0.02562026          1  2  3  5  9  1  2  3  5  9
      7207         -0.02283282          1  2  3  5  9  1  3  4  5  8
       382         -0.05711053          1  2  4  5  6  1  2  4  5  6
       387          0.02221158          1  2  4  5  6  1  2  4  5  7
       402          0.02011385          1  2  4  5  6  1  2  4  5  8
       438         -0.02715633          1  2  4  5  6  1  3  4  5  9
      1015         -0.02889398          1  2  4  5  7  1  2  3  4  7
      1012          0.02221158          1  2  4  5  7  1  2  4  5  6
      1017         -0.02678462          1  2  4  5  7  1  2  4  5  7
      2902          0.02011385          1  2  4  5  8  1  2  4  5  6
      7367         -0.02562026          1  2  4  5  9  1  2  4  5  9
      7313         -0.02097364          1  2  4  5  9  1  3  4  5  6
       563         -0.02097364          1  3  4  5  6  1  2  4  5  9
      1191          0.02183990          1  3  4  5  7  1  2  3  4  9
      3082         -0.02283282          1  3  4  5  8  1  2  3  5  9
      7441          0.02827795          1  3  4  5  9  1  2  3  4  7
      7457         -0.02956356          1  3  4  5  9  1  2  3  5  8
      7438         -0.02715633          1  3  4  5  9  1  2  4  5  6
      7494         -0.02966084          1  3  4  5  9  1  3  4  5  9

          Number of sigma calls:        1
                       o<<<<< (aa):             0.00
                       o<<<<< (bb):             0.00
                       o<<<<< (ab):             0.00
                       o<<<<< (total)           0.00
                       o<<<<< (aa) ff           0.00
                       o<<<<< (aa) gop          0.00
                       o<<<<< (aa) dot          0.00
                       o<<<<< (ab) str          0.00
                       o<<<<< (ab) gath         0.00
                       o<<<<< (ab) dotab        0.00
                       o<<<<< (ab) scat         0.00
                       o<<<<< (ab) sync         0.00
                       o<<<<< Density           0.00
                       o<<<<< Density one       0.00
                       o<<<<< Density two       0.00
                       o<<<<< Density ab        0.00
                       o<<<<< Spin adapt        0.00
                       o<<<<< Symm adapt        0.00

                       o<<<<< (ab) max sync:      0.00



          Natural orbital occupation numbers

              1      
    1    2.0000
    2    1.9847
    3    1.9755
    4    1.9755
    5    1.9755
    6    0.0229
    7    0.0229
    8    0.0229
    9    0.0204
 

          Number of sigma calls:       11
                       o<<<<< (aa):             0.01
                       o<<<<< (bb):             0.01
                       o<<<<< (ab):             0.01
                       o<<<<< (total)           0.03
                       o<<<<< (aa) ff           0.00
                       o<<<<< (aa) gop          0.00
                       o<<<<< (aa) dot          0.00
                       o<<<<< (ab) str          0.00
                       o<<<<< (ab) gath         0.00
                       o<<<<< (ab) dotab        0.00
                       o<<<<< (ab) scat         0.00
                       o<<<<< (ab) sync         0.00
                       o<<<<< Density           0.00
                       o<<<<< Density one       0.00
                       o<<<<< Density two       0.00
                       o<<<<< Density ab        0.00
                       o<<<<< Spin adapt        0.09
                       o<<<<< Symm adapt        0.00

                       o<<<<< (ab) max sync:      0.00


       Final MCSCF results 
       ------------------- 

       Total MCSCF energy =    -40.190832612658
            Gradient norm =      0.0D+00

    CPU time for solution =      0.3s
   Wall time for solution =      0.4s


 
                        Analysis of MCSCF natural orbitals
                        ----------------------------------
 
 Vector    1  Occ=1.999964D+00  E=-1.118251D+01  Symmetry=a
              MO Center=  4.4D-17, -2.3D-16, -6.0D-17, r^2= 2.7D-02
   Bfn.  Coefficient  Atom+Function         Bfn.  Coefficient  Atom+Function  
  ----- ------------  ---------------      ----- ------------  ---------------
     1      0.996220  1 C  s          
 
 Vector    2  Occ=1.984703D+00  E=-9.110047D-01  Symmetry=a
              MO Center= -3.4D-14, -1.6D-14,  3.3D-14, r^2= 1.1D+00
   Bfn.  Coefficient  Atom+Function         Bfn.  Coefficient  Atom+Function  
  ----- ------------  ---------------      ----- ------------  ---------------
     2      0.625320  1 C  s                  1     -0.206231  1 C  s          
     6      0.182254  2 H  s                  7      0.182254  3 H  s          
     8      0.182254  4 H  s                  9      0.182254  5 H  s          
 
 Vector    3  Occ=1.975467D+00  E=-5.206200D-01  Symmetry=a
              MO Center=  2.2D-02,  5.3D-03,  1.4D-01, r^2= 1.2D+00
   Bfn.  Coefficient  Atom+Function         Bfn.  Coefficient  Atom+Function  
  ----- ------------  ---------------      ----- ------------  ---------------
     4      0.556326  1 C  py                 6      0.373863  2 H  s          
     7     -0.352239  3 H  s                  8     -0.230906  4 H  s          
     9      0.209282  5 H  s          
 
 Vector    4  Occ=1.975467D+00  E=-5.206200D-01  Symmetry=a
              MO Center= -5.2D-02,  2.0D-01, -1.3D-01, r^2= 1.2D+00
   Bfn.  Coefficient  Atom+Function         Bfn.  Coefficient  Atom+Function  
  ----- ------------  ---------------      ----- ------------  ---------------
     3      0.517535  1 C  px                 9     -0.449901  5 H  s          
     6      0.308891  2 H  s                  8      0.233593  4 H  s          
     5      0.206359  1 C  pz         
 
 Vector    5  Occ=1.975467D+00  E=-5.206200D-01  Symmetry=a
              MO Center=  3.1D-02, -2.1D-01, -1.2D-02, r^2= 1.2D+00
   Bfn.  Coefficient  Atom+Function         Bfn.  Coefficient  Atom+Function  
  ----- ------------  ---------------      ----- ------------  ---------------
     5      0.534335  1 C  pz                 8     -0.403532  4 H  s          
     7      0.371588  3 H  s                  3     -0.205137  1 C  px         
     6      0.188506  2 H  s                  9     -0.156562  5 H  s          
 
 Vector    6  Occ=2.286079D-02  E= 7.053884D-01  Symmetry=a
              MO Center=  1.1D-01,  7.8D-02,  2.9D-01, r^2= 1.2D+00
   Bfn.  Coefficient  Atom+Function         Bfn.  Coefficient  Atom+Function  
  ----- ------------  ---------------      ----- ------------  ---------------
     6      0.965355  2 H  s                  4     -0.865607  1 C  py         
     7     -0.703871  3 H  s                  3     -0.637862  1 C  px         
     8     -0.257169  4 H  s                  5     -0.235519  1 C  pz         
 
 Vector    7  Occ=2.286079D-02  E= 7.053884D-01  Symmetry=a
              MO Center= -5.8D-02, -1.4D-01,  1.4D-02, r^2= 1.3D+00
   Bfn.  Coefficient  Atom+Function         Bfn.  Coefficient  Atom+Function  
  ----- ------------  ---------------      ----- ------------  ---------------
     5      1.066618  1 C  pz                 7     -0.789810  3 H  s          
     8      0.672629  4 H  s                  9      0.511582  5 H  s          
     6     -0.394401  2 H  s                  3     -0.250600  1 C  px         
 
 Vector    8  Occ=2.286079D-02  E= 7.053884D-01  Symmetry=a
              MO Center= -4.7D-02,  6.1D-02, -3.0D-01, r^2= 1.2D+00
   Bfn.  Coefficient  Atom+Function         Bfn.  Coefficient  Atom+Function  
  ----- ------------  ---------------      ----- ------------  ---------------
     9      0.926493  5 H  s                  3      0.861362  1 C  px         
     8     -0.775602  4 H  s                  4     -0.671712  1 C  py         
     6     -0.180725  2 H  s          
 
 Vector    9  Occ=2.035142D-02  E= 7.453202D-01  Symmetry=a
              MO Center= -2.6D-13,  2.7D-14,  9.4D-14, r^2= 1.5D+00
   Bfn.  Coefficient  Atom+Function         Bfn.  Coefficient  Atom+Function  
  ----- ------------  ---------------      ----- ------------  ---------------
     2      1.614056  1 C  s                  6     -0.662742  2 H  s          
     7     -0.662742  3 H  s                  8     -0.662742  4 H  s          
     9     -0.662742  5 H  s                  1     -0.231761  1 C  s          
 

 Wrote Lagrangian and 1- and 2-particle density matrices to ./ch4_sto6g.mcpdm

 
     Multipole analysis of the density
     ---------------------------------
 
     L   x y z        total        nuclear
     -   - - -        -----        -------
     0   0 0 0     -0.000000     10.000000
 
     1   1 0 0      0.000000      0.000000
     1   0 1 0     -0.000000      0.000000
     1   0 0 1     -0.000000      0.000000
 
     2   2 0 0     -5.826236      5.653558
     2   1 1 0     -0.000000      0.000000
     2   1 0 1     -0.000000      0.000000
     2   0 2 0     -5.826236      5.653558
     2   0 1 1      0.000000      0.000000
     2   0 0 2     -5.826236      5.653558
 
 
  Mulliken analysis of the total density
  --------------------------------------

    Atom       Charge   Shell Charges
 -----------   ------   -------------------------------------------------------
    1 C    6     6.25   2.00  1.18  3.08
    2 H    1     0.94   0.94
    3 H    1     0.94   0.94
    4 H    1     0.94   0.94
    5 H    1     0.94   0.94
 
    Mulliken analysis of the active space density
    ---------------------------------------------

    Atom       Charge   Shell Charges
 -----------   ------   -------------------------------------------------------
    1 C    6     6.25   2.00  1.18  3.08
    2 H    1     0.94   0.94
    3 H    1     0.94   0.94
    4 H    1     0.94   0.94
    5 H    1     0.94   0.94

 Task  times  cpu:        0.4s     wall:        0.4s
 
 
                                NWChem Input Module
                                -------------------
 
 
 Summary of allocated global arrays
-----------------------------------
  No active global arrays



                         GA Statistics for process    0
                         ------------------------------

       create   destroy   get      put      acc     scatter   gather  read&inc
calls: 1512     1512     5.27e+05 3202     3.15e+04   88        0     3.43e+04 
number of processes/call 1.01e+00 1.52e+00 1.02e+00 0.00e+00 0.00e+00
bytes total:             1.32e+07 1.51e+06 3.28e+06 4.20e+06 0.00e+00 2.74e+05
bytes remote:            1.20e+07 6.44e+05 3.03e+06 2.08e+06 0.00e+00 0.00e+00
Max memory consumed for GA by this process: 157264 bytes
 
MA_summarize_allocated_blocks: starting scan ...
MA_summarize_allocated_blocks: scan completed: 0 heap blocks, 0 stack blocks
MA usage statistics:

	allocation statistics:
					      heap	     stack
					      ----	     -----
	current number of blocks	         0	         0
	maximum number of blocks	        17	        33
	current total bytes		         0	         0
	maximum total bytes		     80104	  22509320
	maximum total K-bytes		        81	     22510
	maximum total M-bytes		         1	        23
 
 
                                     CITATION
                                     --------
                Please cite the following reference when publishing
                           results obtained with NWChem:
 
                 M. Valiev, E.J. Bylaska, N. Govind, K. Kowalski,
              T.P. Straatsma, H.J.J. van Dam, D. Wang, J. Nieplocha,
                        E. Apra, T.L. Windus, W.A. de Jong
                 "NWChem: a comprehensive and scalable open-source
                  solution for large scale molecular simulations"
                      Comput. Phys. Commun. 181, 1477 (2010)
                           doi:10.1016/j.cpc.2010.04.018
 
                                      AUTHORS
                                      -------
          E. Apra, E. J. Bylaska, W. A. de Jong, N. Govind, K. Kowalski,
       T. P. Straatsma, M. Valiev, H. J. J. van Dam, D. Wang, T. L. Windus,
        J. Hammond, J. Autschbach, K. Bhaskaran-Nair, J. Brabec, K. Lopata,
    S. A. Fischer, S. Krishnamoorthy, M. Jacquelin, W. Ma, M. Klemm, O. Villa,
      Y. Chen, V. Anisimov, F. Aquino, S. Hirata, M. T. Hackler, V. Konjkov,
            D. Mejia-Rodriguez, T. Risthaus, M. Malagoli, A. Marenich,
   A. Otero-de-la-Roza, J. Mullin, P. Nichols, R. Peverati, J. Pittner, Y. Zhao,
        P.-D. Fan, A. Fonari, M. J. Williamson, R. J. Harrison, J. R. Rehr,
      M. Dupuis, D. Silverstein, D. M. A. Smith, J. Nieplocha, V. Tipparaju,
    M. Krishnan, B. E. Van Kuiken, A. Vazquez-Mayagoitia, L. Jensen, M. Swart,
      Q. Wu, T. Van Voorhis, A. A. Auer, M. Nooijen, L. D. Crosby, E. Brown,
      G. Cisneros, G. I. Fann, H. Fruchtl, J. Garza, K. Hirao, R. A. Kendall,
      J. A. Nichols, K. Tsemekhman, K. Wolinski, J. Anchell, D. E. Bernholdt,
      P. Borowski, T. Clark, D. Clerc, H. Dachsel, M. J. O. Deegan, K. Dyall,
    D. Elwood, E. Glendening, M. Gutowski, A. C. Hess, J. Jaffe, B. G. Johnson,
     J. Ju, R. Kobayashi, R. Kutteh, Z. Lin, R. Littlefield, X. Long, B. Meng,
      T. Nakajima, S. Niu, L. Pollack, M. Rosing, K. Glaesemann, G. Sandrone,
      M. Stave, H. Taylor, G. Thomas, J. H. van Lenthe, A. T. Wong, Z. Zhang.

 Total times  cpu:        4.3s     wall:        5.8s
