All connections between all procs tested: SUCCESS
 argument  1 = cosmo_h2o.nw



============================== echo of input deck ==============================
start cosmo_h2o
echo
 title "h2o"
geometry nocenter noautosym
o                  .0000000000         .0000000000        -.0486020332
h                  .7545655371         .0000000000         .5243010666
h                 -.7545655371         .0000000000         .5243010666
end
basis segment
  o library 6-31g**
  h library 6-31g**
end
 cosmo
   dielec 78.0
   radius 1.40
          1.16
          1.16
   rsolv  0.50
   lineq  0
 end
 task scf energy
================================================================================


                                         
                                         


             Northwest Computational Chemistry Package (NWChem) 6.1.1
             --------------------------------------------------------


                    Environmental Molecular Sciences Laboratory
                       Pacific Northwest National Laboratory
                                Richland, WA 99352

                              Copyright (c) 1994-2012
                       Pacific Northwest National Laboratory
                            Battelle Memorial Institute

             NWChem is an open-source computational chemistry package
                        distributed under the terms of the
                      Educational Community License (ECL) 2.0
             A copy of the license is included with this distribution
                              in the LICENSE.TXT file

                                  ACKNOWLEDGMENT
                                  --------------

            This software and its documentation were developed at the
            EMSL at Pacific Northwest National Laboratory, a multiprogram
            national laboratory, operated for the U.S. Department of Energy
            by Battelle under Contract Number DE-AC05-76RL01830. Support
            for this work was provided by the Department of Energy Office
            of Biological and Environmental Research, Office of Basic
            Energy Sciences, and the Office of Advanced Scientific Computing.


           Job information
           ---------------

    hostname        = arcen
    program         = /home/d3y133/nwchem-dev/nwchem-trunk/QA/../bin/LINUX64/nwchem
    date            = Thu Aug 23 08:32:31 2012

    compiled        = Wed_Aug_22_23:25:59_2012
    source          = /home/d3y133/nwchem-dev/nwchem-trunk
    nwchem branch   = Development
    nwchem revision = 22762:22764M
    ga revision     = 10078M
    input           = cosmo_h2o.nw
    prefix          = cosmo_h2o.
    data base       = /home/d3y133/nwchem-dev/nwchem-trunk/QA/scratchdir/cosmo_h2o.db
    status          = startup
    nproc           =        4
    time left       =     -1s



           Memory information
           ------------------

    heap     =   13107201 doubles =    100.0 Mbytes
    stack    =   13107201 doubles =    100.0 Mbytes
    global   =   26214400 doubles =    200.0 Mbytes (distinct from heap & stack)
    total    =   52428802 doubles =    400.0 Mbytes
    verify   = yes
    hardfail = no 


           Directory information
           ---------------------

  0 permanent = /home/d3y133/nwchem-dev/nwchem-trunk/QA/scratchdir
  0 scratch   = /home/d3y133/nwchem-dev/nwchem-trunk/QA/scratchdir




                                NWChem Input Module
                                -------------------


                                        h2o
                                        ---

 Scaling coordinates for geometry "geometry" by  1.889725989
 (inverse scale =  0.529177249)


          ------
          auto-z
          ------


                             Geometry "geometry" -> ""
                             -------------------------

 Output coordinates in angstroms (scale by  1.889725989 to convert to a.u.)

  No.       Tag          Charge          X              Y              Z
 ---- ---------------- ---------- -------------- -------------- --------------
    1 o                    8.0000     0.00000000     0.00000000    -0.04860203
    2 h                    1.0000     0.75456554     0.00000000     0.52430107
    3 h                    1.0000    -0.75456554     0.00000000     0.52430107

      Atomic Mass 
      ----------- 

      o                 15.994910
      h                  1.007825


 Effective nuclear repulsion energy (a.u.)       9.2874668371

            Nuclear Dipole moment (a.u.) 
            ----------------------------
        X                 Y               Z
 ---------------- ---------------- ----------------
     0.0000000000     0.0000000000     1.2468145009



                                Z-matrix (autoz)
                                -------- 

 Units are Angstrom for bonds and degrees for angles

      Type          Name      I     J     K     L     M      Value
      ----------- --------  ----- ----- ----- ----- ----- ----------
    1 Stretch                  1     2                       0.94741
    2 Stretch                  1     3                       0.94741
    3 Bend                     2     1     3               105.58490


            XYZ format geometry
            -------------------
     3
 geometry
 o                     0.00000000     0.00000000    -0.04860203
 h                     0.75456554     0.00000000     0.52430107
 h                    -0.75456554     0.00000000     0.52430107

 ==============================================================================
                                internuclear distances
 ------------------------------------------------------------------------------
       center one      |      center two      | atomic units |  angstroms
 ------------------------------------------------------------------------------
    2 h                |   1 o                |     1.79035  |     0.94741
    3 h                |   1 o                |     1.79035  |     0.94741
 ------------------------------------------------------------------------------
                         number of included internuclear distances:          2
 ==============================================================================



 ==============================================================================
                                 internuclear angles
 ------------------------------------------------------------------------------
        center 1       |       center 2       |       center 3       |  degrees
 ------------------------------------------------------------------------------
    2 h                |   1 o                |   3 h                |   105.58
 ------------------------------------------------------------------------------
                            number of included internuclear angles:          1
 ==============================================================================



  library name resolved from: environment
  library file name is: </home/d3y133/nwchem-dev/nwchem-trunk/QA/../src/basis/libraries/>
  
                      Basis "ao basis" -> "" (cartesian)
                      -----
  o (Oxygen)
  ----------
            Exponent  Coefficients 
       -------------- ---------------------------------------------------------
  1 S  5.48467170E+03  0.001831
  1 S  8.25234950E+02  0.013950
  1 S  1.88046960E+02  0.068445
  1 S  5.29645000E+01  0.232714
  1 S  1.68975700E+01  0.470193
  1 S  5.79963530E+00  0.358521

  2 S  1.55396160E+01 -0.110778
  2 S  3.59993360E+00 -0.148026
  2 S  1.01376180E+00  1.130767

  3 P  1.55396160E+01  0.070874
  3 P  3.59993360E+00  0.339753
  3 P  1.01376180E+00  0.727159

  4 S  2.70005800E-01  1.000000

  5 P  2.70005800E-01  1.000000

  6 D  8.00000000E-01  1.000000

  h (Hydrogen)
  ------------
            Exponent  Coefficients 
       -------------- ---------------------------------------------------------
  1 S  1.87311370E+01  0.033495
  1 S  2.82539370E+00  0.234727
  1 S  6.40121700E-01  0.813757

  2 S  1.61277800E-01  1.000000

  3 P  1.10000000E+00  1.000000



 Summary of "ao basis" -> "" (cartesian)
 ------------------------------------------------------------------------------
       Tag                 Description            Shells   Functions and Types
 ---------------- ------------------------------  ------  ---------------------
 o                          6-31g**                  6       15   3s2p1d
 h                          6-31g**                  3        5   2s1p


  geom_rtdb_load: not found or rtdb corrupt: cosmo efc geom -> cosmo efc geom
 geom_rtdb_load: open geometies:  2
  1 geom_rtdb_load: "geometry" -> "geometry"
  2 geom_rtdb_load: "cosmo efc geom" -> "cosmo efc geom"
 geom_rtdb_load: geometries in last accessed data base:  1
 geometry

          ---------------
          -cosmo- solvent
          ---------------
 dielectric constant -eps-  =  78.00
 charge screening approach  =   2
 screen = (eps-1)/(eps    ) =   0.98718
 -lineq- algorithm          =   0
 -bem- low  level           =   2
 -bem- high level           =   3
 -bem- from -octahedral-
 solvent radius (ang.)      =   0.500
 atomic radii = 
 --------------
    1  8.000  1.400
    2  1.000  1.160
    3  1.000  1.160

 solvent accessible surface
 --------------------------

 ---------- ATOMIC COORDINATES (A.U.) ------------ VDWR(ANG.) --
     1    0.00000000    0.00000000   -0.09184453     1.400
     2    1.42592211    0.00000000    0.99078535     1.160
     3   -1.42592211    0.00000000    0.99078535     1.160
 number of segments per atom =         32
 number of   points per atom =        128
 atom (   nspa,  nppa )
 ----------------------
    1 (     20,    64 )      64
    2 (     20,    62 )      62
    3 (     20,    62 )      62
 number of -cosmo- surface points =       60
 molecular surface =     28.696 angstrom**2
 molecular volume  =     12.081 angstrom**3
 G(cav/disp)       =      1.003 kcal/mol
 ...... end of -cosmo- initialization ......


                                 NWChem SCF Module
                                 -----------------


                                        h2o



  ao basis        = "ao basis"
  functions       =    25
  atoms           =     3
  closed shells   =     5
  open shells     =     0
  charge          =   0.00
  wavefunction    = RHF 
  input vectors   = atomic
  output vectors  = /home/d3y133/nwchem-dev/nwchem-trunk/QA/scratchdir/cosmo_h2o.movecs
  use symmetry    = F
  symmetry adapt  = F


 Summary of "ao basis" -> "ao basis" (cartesian)
 ------------------------------------------------------------------------------
       Tag                 Description            Shells   Functions and Types
 ---------------- ------------------------------  ------  ---------------------
 o                          6-31g**                  6       15   3s2p1d
 h                          6-31g**                  3        5   2s1p



 Forming initial guess at       1.8s


      Superposition of Atomic Density Guess
      -------------------------------------

 Sum of atomic energies:         -75.75081731

      Non-variational initial energy
      ------------------------------

 Total energy =     -75.937479
 1-e energy   =    -121.880910
 2-e energy   =      36.655964
 HOMO         =      -0.474852
 LUMO         =       0.117559


 Starting SCF solution at       1.9s



 ----------------------------------------------
         Quadratically convergent ROHF

 Convergence threshold     :          1.000E-04
 Maximum no. of iterations :           30
 Final Fock-matrix accuracy:          1.000E-07
 ----------------------------------------------

     COSMO gas phase

 #quartets = 3.081D+03 #integrals = 2.937D+04 #direct =  0.0% #cached =100.0%


 Integral file          = /home/d3y133/nwchem-dev/nwchem-trunk/QA/scratchdir/cosmo_h2o.aoints.0
 Record size in doubles =  65536        No. of integs per rec  =  43688
 Max. records in memory =      2        Max. records in file   =    808
 No. of bits per label  =      8        No. of bits per value  =     64


File balance: exchanges=     0  moved=     0  time=   0.0


              iter       energy          gnorm     gmax       time
             ----- ------------------- --------- --------- --------
                 1      -75.9892268446  8.38D-01  3.47D-01      0.1
                 2      -76.0214334273  1.75D-01  9.15D-02      0.1
                 3      -76.0235574625  1.41D-02  7.51D-03      0.1
                 4      -76.0235721773  1.96D-04  7.59D-05      0.1
                 5      -76.0235721798  7.16D-06  3.64D-06      0.1
     COSMO solvation phase

              iter       energy          gnorm     gmax       time
             ----- ------------------- --------- --------- --------
                 1      -76.0394151601  1.48D-01  6.59D-02      0.1
                 2      -76.0418069584  2.73D-02  1.52D-02      0.1
                 3      -76.0419256083  4.62D-03  2.28D-03      0.2
                 4      -76.0419282778  6.97D-04  3.44D-04      0.2
                 5      -76.0419284011  1.05D-04  5.22D-05      0.2
                 6      -76.0419284129  1.84D-05  1.00D-05      0.2
 
                  COSMO solvation results
                  -----------------------
 
                 gas phase energy =       -76.0235721798
                 sol phase energy =       -76.0419284129
 (electrostatic) solvation energy =         0.0183562331 (   11.52 kcal/mol)


       Final RHF  results 
       ------------------ 

         Total SCF energy =    -76.041928412869
      One-electron energy =   -123.577988282069
      Two-electron energy =     38.052874778346
 Nuclear repulsion energy =      9.287466837077

        Time for solution =      0.2s


             Final eigenvalues
             -----------------

              1      
    1  -20.5659
    2   -1.3528
    3   -0.7160
    4   -0.5877
    5   -0.5137
    6    0.2358
    7    0.3312
    8    1.0114
    9    1.0753
   10    1.1222
   11    1.1478
   12    1.2850
   13    1.4116
   14    1.7967
   15    1.8126

                       ROHF Final Molecular Orbital Analysis
                       -------------------------------------

 Vector    2  Occ=2.000000D+00  E=-1.352791D+00
              MO Center=  3.7D-16, -4.6D-17,  1.1D-01, r^2= 5.0D-01
   Bfn.  Coefficient  Atom+Function         Bfn.  Coefficient  Atom+Function  
  ----- ------------  ---------------      ----- ------------  ---------------
     2      0.471925  1 O  s                  6      0.433333  1 O  s          
     1     -0.212157  1 O  s          

 Vector    3  Occ=2.000000D+00  E=-7.160106D-01
              MO Center= -2.8D-15, -3.5D-17,  1.5D-01, r^2= 7.4D-01
   Bfn.  Coefficient  Atom+Function         Bfn.  Coefficient  Atom+Function  
  ----- ------------  ---------------      ----- ------------  ---------------
     3      0.510780  1 O  px                 7      0.295016  1 O  px         
    16      0.234450  2 H  s                 21     -0.234450  3 H  s          

 Vector    4  Occ=2.000000D+00  E=-5.877233D-01
              MO Center=  7.5D-17, -2.0D-16, -1.2D-01, r^2= 6.7D-01
   Bfn.  Coefficient  Atom+Function         Bfn.  Coefficient  Atom+Function  
  ----- ------------  ---------------      ----- ------------  ---------------
     5      0.560472  1 O  pz                 9      0.410762  1 O  pz         
     6     -0.310689  1 O  s          

 Vector    5  Occ=2.000000D+00  E=-5.136863D-01
              MO Center= -2.7D-16,  1.2D-15, -2.8D-02, r^2= 6.1D-01
   Bfn.  Coefficient  Atom+Function         Bfn.  Coefficient  Atom+Function  
  ----- ------------  ---------------      ----- ------------  ---------------
     4      0.631374  1 O  py                 8      0.509483  1 O  py         

 Vector    6  Occ=0.000000D+00  E= 2.357648D-01
              MO Center= -1.4D-14, -1.3D-16,  7.1D-01, r^2= 2.6D+00
   Bfn.  Coefficient  Atom+Function         Bfn.  Coefficient  Atom+Function  
  ----- ------------  ---------------      ----- ------------  ---------------
     6      1.393206  1 O  s                 17     -1.045754  2 H  s          
    22     -1.045754  3 H  s                  9      0.499863  1 O  pz         
     5      0.188213  1 O  pz         

 Vector    7  Occ=0.000000D+00  E= 3.312272D-01
              MO Center=  3.5D-15,  2.5D-17,  6.9D-01, r^2= 2.8D+00
   Bfn.  Coefficient  Atom+Function         Bfn.  Coefficient  Atom+Function  
  ----- ------------  ---------------      ----- ------------  ---------------
    17      1.422606  2 H  s                 22     -1.422606  3 H  s          
     7     -0.848347  1 O  px                 3     -0.325184  1 O  px         

 Vector    8  Occ=0.000000D+00  E= 1.011394D+00
              MO Center= -1.2D-14,  3.2D-17,  1.9D-01, r^2= 1.5D+00
   Bfn.  Coefficient  Atom+Function         Bfn.  Coefficient  Atom+Function  
  ----- ------------  ---------------      ----- ------------  ---------------
    16      0.773973  2 H  s                 21     -0.773973  3 H  s          
    17     -0.553485  2 H  s                 22      0.553485  3 H  s          
    12      0.473860  1 O  dxz                7     -0.469936  1 O  px         

 Vector    9  Occ=0.000000D+00  E= 1.075297D+00
              MO Center= -1.1D-14, -1.2D-15, -3.1D-01, r^2= 1.2D+00
   Bfn.  Coefficient  Atom+Function         Bfn.  Coefficient  Atom+Function  
  ----- ------------  ---------------      ----- ------------  ---------------
     6      0.897178  1 O  s                  5      0.782043  1 O  pz         
     9     -0.768496  1 O  pz                 2     -0.458423  1 O  s          
    10     -0.417545  1 O  dxx               15     -0.270500  1 O  dzz        
    16     -0.244056  2 H  s                 21     -0.244056  3 H  s          
    17      0.191763  2 H  s                 22      0.191763  3 H  s          

 Vector   10  Occ=0.000000D+00  E= 1.122152D+00
              MO Center=  2.0D-15, -1.5D-16,  3.0D-01, r^2= 1.6D+00
   Bfn.  Coefficient  Atom+Function         Bfn.  Coefficient  Atom+Function  
  ----- ------------  ---------------      ----- ------------  ---------------
     6      1.357944  1 O  s                  2     -0.776221  1 O  s          
    16      0.695645  2 H  s                 21      0.695645  3 H  s          
    17     -0.608523  2 H  s                 22     -0.608523  3 H  s          
     9     -0.421678  1 O  pz                13     -0.377611  1 O  dyy        
    15     -0.209628  1 O  dzz        

 Vector   11  Occ=0.000000D+00  E= 1.147825D+00
              MO Center=  2.4D-16,  9.7D-16, -5.4D-02, r^2= 1.1D+00
   Bfn.  Coefficient  Atom+Function         Bfn.  Coefficient  Atom+Function  
  ----- ------------  ---------------      ----- ------------  ---------------
     8     -1.042966  1 O  py                 4      0.966586  1 O  py         

 Vector   12  Occ=0.000000D+00  E= 1.284977D+00
              MO Center=  5.1D-16,  5.4D-16,  2.6D-02, r^2= 1.6D+00
   Bfn.  Coefficient  Atom+Function         Bfn.  Coefficient  Atom+Function  
  ----- ------------  ---------------      ----- ------------  ---------------
     7      1.779247  1 O  px                17     -1.027966  2 H  s          
    22      1.027966  3 H  s                  3     -0.877062  1 O  px         
    12      0.303979  1 O  dxz               18      0.178874  2 H  px         
    23      0.178874  3 H  px         

 Vector   13  Occ=0.000000D+00  E= 1.411605D+00
              MO Center=  3.0D-14, -2.6D-16,  4.7D-01, r^2= 1.4D+00
   Bfn.  Coefficient  Atom+Function         Bfn.  Coefficient  Atom+Function  
  ----- ------------  ---------------      ----- ------------  ---------------
     6      3.571429  1 O  s                  2     -1.392464  1 O  s          
     9      1.094302  1 O  pz                17     -0.808663  2 H  s          
    22     -0.808663  3 H  s                 10     -0.587579  1 O  dxx        
     5     -0.433857  1 O  pz                15     -0.350188  1 O  dzz        
    16     -0.322671  2 H  s                 21     -0.322671  3 H  s          

 Vector   14  Occ=0.000000D+00  E= 1.796713D+00
              MO Center= -1.7D-16, -7.5D-16,  1.9D-01, r^2= 7.6D-01
   Bfn.  Coefficient  Atom+Function         Bfn.  Coefficient  Atom+Function  
  ----- ------------  ---------------      ----- ------------  ---------------
    11      1.180060  1 O  dxy               19      0.343057  2 H  py         
    24     -0.343057  3 H  py         

 Vector   15  Occ=0.000000D+00  E= 1.812638D+00
              MO Center=  1.1D-15, -8.9D-17,  5.3D-02, r^2= 8.1D-01
   Bfn.  Coefficient  Atom+Function         Bfn.  Coefficient  Atom+Function  
  ----- ------------  ---------------      ----- ------------  ---------------
     6      0.793427  1 O  s                 15     -0.793922  1 O  dzz        
     9      0.443519  1 O  pz                13      0.277857  1 O  dyy        
     2     -0.274562  1 O  s                 20     -0.254638  2 H  pz         
    25     -0.254638  3 H  pz                10      0.247999  1 O  dxx        
    16     -0.218357  2 H  s                 21     -0.218357  3 H  s          


 center of mass
 --------------
 x =   0.00000000 y =   0.00000000 z =   0.02931789

 moments of inertia (a.u.)
 ------------------
           2.098117097590           0.000000000000           0.000000000000
           0.000000000000           6.196445222521           0.000000000000
           0.000000000000           0.000000000000           4.098328124931

  Mulliken analysis of the total density
  --------------------------------------

    Atom       Charge   Shell Charges
 -----------   ------   -------------------------------------------------------
    1 O    8     8.77   2.00  0.88  2.91  0.90  2.05  0.03
    2 H    1     0.61   0.47  0.10  0.04
    3 H    1     0.61   0.47  0.10  0.04

       Multipole analysis of the density wrt the origin
       ------------------------------------------------

     L   x y z        total         open         nuclear
     -   - - -        -----         ----         -------
     0   0 0 0      0.000000      0.000000     10.000000

     1   1 0 0      0.000000      0.000000      0.000000
     1   0 1 0      0.000000      0.000000      0.000000
     1   0 0 1      1.011281      0.000000      1.246815

     2   2 0 0     -2.863022      0.000000      4.066508
     2   1 1 0      0.000000      0.000000      0.000000
     2   1 0 1      0.000000      0.000000      0.000000
     2   0 2 0     -5.335329      0.000000      0.000000
     2   0 1 1      0.000000      0.000000      0.000000
     2   0 0 2     -4.149397      0.000000      2.030795


 Parallel integral file used       4 records with       0 large values


 Task  times  cpu:        0.2s     wall:        1.1s
 Summary of allocated global arrays
-----------------------------------
  No active global arrays



                         GA Statistics for process    0
                         ------------------------------

       create   destroy   get      put      acc     scatter   gather  read&inc
calls:  537      537     2815      963     2414        0        0        0     
number of processes/call 1.30e+00 1.24e+00 1.16e+00 0.00e+00 0.00e+00
bytes total:             2.58e+06 1.42e+06 5.51e+05 0.00e+00 0.00e+00 0.00e+00
bytes remote:            4.68e+05 1.68e+05 2.58e+05 0.00e+00 0.00e+00 0.00e+00
Max memory consumed for GA by this process: 41000 bytes
MA_summarize_allocated_blocks: starting scan ...
MA_summarize_allocated_blocks: scan completed: 0 heap blocks, 0 stack blocks
MA usage statistics:

	allocation statistics:
					      heap	     stack
					      ----	     -----
	current number of blocks	         0	         0
	maximum number of blocks	        17	        14
	current total bytes		         0	         0
	maximum total bytes		   1060264	  22509480
	maximum total K-bytes		      1061	     22510
	maximum total M-bytes		         2	        23


                                NWChem Input Module
                                -------------------





                                     CITATION
                                     --------
                Please cite the following reference when publishing
                           results obtained with NWChem:

                 M. Valiev, E.J. Bylaska, N. Govind, K. Kowalski,
              T.P. Straatsma, H.J.J. van Dam, D. Wang, J. Nieplocha,
                        E. Apra, T.L. Windus, W.A. de Jong
                 "NWChem: a comprehensive and scalable open-source
                  solution for large scale molecular simulations"
                      Comput. Phys. Commun. 181, 1477 (2010)
                           doi:10.1016/j.cpc.2010.04.018

                              AUTHORS & CONTRIBUTORS
                              ----------------------
  E. Apra, E. J. Bylaska, W. A. de Jong, N. Govind, K. Kowalski, T. P. Straatsma,
          M. Valiev, H. J. J. van Dam, D. Wang, T. L. Windus, J. Hammond,
    J. Autschbach, F. Aquino, S. Hirata, M. T. Hackler, J. Mullin, P. Nichols,
    R. Peverati, Y. Zhao, P.-D. Fan, R. J. Harrison, M. Dupuis, D. M. A. Smith,
    J. Nieplocha, V. Tipparaju, M. Krishnan, A. Vazquez-Mayagoitia, L. Jensen,
      M. Swart, Q. Wu, T. Van Voorhis, A. A. Auer, M. Nooijen, L. D. Crosby,
        E. Brown, G. Cisneros, G. I. Fann, H. Fruchtl, J. Garza, K. Hirao,
        R. Kendall, J. A. Nichols, K. Tsemekhman, K. Wolinski, J. Anchell,
       D. Bernholdt, P. Borowski, T. Clark, D. Clerc, H. Dachsel, M. Deegan,
        K. Dyall, D. Elwood, E. Glendening, M. Gutowski, A. Hess, J. Jaffe,
        B. Johnson, J. Ju, R. Kobayashi, R. Kutteh, Z. Lin, R. Littlefield,
   X. Long, B. Meng, T. Nakajima, S. Niu, L. Pollack, M. Rosing, K. Glaesemann,
          G. Sandrone, M. Stave, H. Taylor, G. Thomas, J. H. van Lenthe,
                                A. Wong, Z. Zhang.

 Total times  cpu:        0.2s     wall:        2.6s
