 argument  1 = ./h2o-camb3lyp-pol-cdfit.nw
All connections between all procs tested: SUCCESS
 


============================== echo of input deck ==============================
echo
start h2o-camb3lyp-pol-cdfit

geometry units angstrom
O      0.00000000     0.00000000     0.11726921
H      0.75698224     0.00000000    -0.46907685
H     -0.75698224     0.00000000    -0.46907685
end

basis spherical
  * library aug-cc-pvdz
end

basis "cd basis"
*  library "DGauss A2 DFT Coulomb Fitting"
end

set int:cando_txs f

dft
  xc xcamb88 1.00 lyp 0.81 vwn_5 0.19 hfexch 1.00
  cam 0.33 cam_alpha 0.19 cam_beta 0.46
  iterations 100
  direct
end
task dft energy

property
  center com
  dipole
  aoresponse 1 0.0
end
task dft property
================================================================================


                                         
                                         
 
 
              Northwest Computational Chemistry Package (NWChem) 6.6
              ------------------------------------------------------
 
 
                    Environmental Molecular Sciences Laboratory
                       Pacific Northwest National Laboratory
                                Richland, WA 99352
 
                              Copyright (c) 1994-2015
                       Pacific Northwest National Laboratory
                            Battelle Memorial Institute
 
             NWChem is an open-source computational chemistry package
                        distributed under the terms of the
                      Educational Community License (ECL) 2.0
             A copy of the license is included with this distribution
                              in the LICENSE.TXT file
 
                                  ACKNOWLEDGMENT
                                  --------------

            This software and its documentation were developed at the
            EMSL at Pacific Northwest National Laboratory, a multiprogram
            national laboratory, operated for the U.S. Department of Energy
            by Battelle under Contract Number DE-AC05-76RL01830. Support
            for this work was provided by the Department of Energy Office
            of Biological and Environmental Research, Office of Basic
            Energy Sciences, and the Office of Advanced Scientific Computing.


           Job information
           ---------------

    hostname        = g2
    program         = /dtemp/niri/exec/nwchem66-09252015
    date            = Fri Sep 25 17:39:56 2015

    compiled        = Fri_Sep_25_17:06:08_2015
    source          = /home/niri/nwchem/cascade/nwchem-6.6
    nwchem branch   = 6.6
    nwchem revision = 27461
    ga revision     = 10584
    input           = ./h2o-camb3lyp-pol-cdfit.nw
    prefix          = h2o-camb3lyp-pol-cdfit.
    data base       = ./h2o-camb3lyp-pol-cdfit.db
    status          = startup
    nproc           =       32
    time left       =   1767s



           Memory information
           ------------------

    heap     =   13107196 doubles =    100.0 Mbytes
    stack    =   13107201 doubles =    100.0 Mbytes
    global   =   26214400 doubles =    200.0 Mbytes (distinct from heap & stack)
    total    =   52428797 doubles =    400.0 Mbytes
    verify   = yes
    hardfail = no 


           Directory information
           ---------------------
 
  0 permanent = .
  0 scratch   = .
 
 
 
 
                                NWChem Input Module
                                -------------------
 
 

 Scaling coordinates for geometry "geometry" by  1.889725989
 (inverse scale =  0.529177249)

 C2V symmetry detected

          ------
          auto-z
          ------
 
 
                             Geometry "geometry" -> ""
                             -------------------------
 
 Output coordinates in angstroms (scale by  1.889725989 to convert to a.u.)
 
  No.       Tag          Charge          X              Y              Z
 ---- ---------------- ---------- -------------- -------------- --------------
    1 O                    8.0000     0.00000000     0.00000000     0.11726921
    2 H                    1.0000     0.75698224     0.00000000    -0.46907685
    3 H                    1.0000    -0.75698224     0.00000000    -0.46907685
 
      Atomic Mass 
      ----------- 
 
      O                 15.994910
      H                  1.007825
 

 Effective nuclear repulsion energy (a.u.)       9.1920946687

            Nuclear Dipole moment (a.u.) 
            ----------------------------
        X                 Y               Z
 ---------------- ---------------- ----------------
     0.0000000000     0.0000000000     0.0000000000
 
      Symmetry information
      --------------------
 
 Group name             C2v       
 Group number             16
 Group order               4
 No. of unique centers     2
 
      Symmetry unique atoms
 
     1    2
 


                                Z-matrix (autoz)
                                -------- 

 Units are Angstrom for bonds and degrees for angles
 
      Type          Name      I     J     K     L     M      Value
      ----------- --------  ----- ----- ----- ----- ----- ----------
    1 Stretch                  1     2                       0.95751
    2 Stretch                  1     3                       0.95751
    3 Bend                     2     1     3               104.47845
 
 
            XYZ format geometry
            -------------------
     3
 geometry
 O                     0.00000000     0.00000000     0.11726921
 H                     0.75698224     0.00000000    -0.46907685
 H                    -0.75698224     0.00000000    -0.46907685
 
 ==============================================================================
                                internuclear distances
 ------------------------------------------------------------------------------
       center one      |      center two      | atomic units |  angstroms
 ------------------------------------------------------------------------------
    2 H                |   1 O                |     1.80943  |     0.95751
    3 H                |   1 O                |     1.80943  |     0.95751
 ------------------------------------------------------------------------------
                         number of included internuclear distances:          2
 ==============================================================================



 ==============================================================================
                                 internuclear angles
 ------------------------------------------------------------------------------
        center 1       |       center 2       |       center 3       |  degrees
 ------------------------------------------------------------------------------
    2 H                |   1 O                |   3 H                |   104.48
 ------------------------------------------------------------------------------
                            number of included internuclear angles:          1
 ==============================================================================



  library name resolved from: environment
  library file name is: <
 /home/scicons/cascade/apps/nwchem-6.5/src/basis/libraries/>
  


 Summary of "ao basis" -> "" (spherical)
 ------------------------------------------------------------------------------
       Tag                 Description            Shells   Functions and Types
 ---------------- ------------------------------  ------  ---------------------
 *                        aug-cc-pvdz                 on all atoms 


  library name resolved from: environment
  library file name is: <
 /home/scicons/cascade/apps/nwchem-6.5/src/basis/libraries/>
  


 Summary of "cd basis" -> "" (cartesian)
 ------------------------------------------------------------------------------
       Tag                 Description            Shells   Functions and Types
 ---------------- ------------------------------  ------  ---------------------
 *                DGauss A2 DFT Coulomb Fitting       on all atoms 


 
                                 NWChem DFT Module
                                 -----------------
 
 
                      Basis "ao basis" -> "ao basis" (spherical)
                      -----
  O (Oxygen)
  ----------
            Exponent  Coefficients 
       -------------- ---------------------------------------------------------
  1 S  1.17200000E+04  0.000710
  1 S  1.75900000E+03  0.005470
  1 S  4.00800000E+02  0.027837
  1 S  1.13700000E+02  0.104800
  1 S  3.70300000E+01  0.283062
  1 S  1.32700000E+01  0.448719
  1 S  5.02500000E+00  0.270952
  1 S  1.01300000E+00  0.015458
 
  2 S  1.17200000E+04 -0.000160
  2 S  1.75900000E+03 -0.001263
  2 S  4.00800000E+02 -0.006267
  2 S  1.13700000E+02 -0.025716
  2 S  3.70300000E+01 -0.070924
  2 S  1.32700000E+01 -0.165411
  2 S  5.02500000E+00 -0.116955
  2 S  1.01300000E+00  0.557368
 
  3 S  3.02300000E-01  1.000000
 
  4 S  7.89600000E-02  1.000000
 
  5 P  1.77000000E+01  0.043018
  5 P  3.85400000E+00  0.228913
  5 P  1.04600000E+00  0.508728
 
  6 P  2.75300000E-01  1.000000
 
  7 P  6.85600000E-02  1.000000
 
  8 D  1.18500000E+00  1.000000
 
  9 D  3.32000000E-01  1.000000
 
  H (Hydrogen)
  ------------
            Exponent  Coefficients 
       -------------- ---------------------------------------------------------
  1 S  1.30100000E+01  0.019685
  1 S  1.96200000E+00  0.137977
  1 S  4.44600000E-01  0.478148
 
  2 S  1.22000000E-01  1.000000
 
  3 S  2.97400000E-02  1.000000
 
  4 P  7.27000000E-01  1.000000
 
  5 P  1.41000000E-01  1.000000
 


 Summary of "ao basis" -> "ao basis" (spherical)
 ------------------------------------------------------------------------------
       Tag                 Description            Shells   Functions and Types
 ---------------- ------------------------------  ------  ---------------------
 O                        aug-cc-pvdz                9       23   4s3p2d
 H                        aug-cc-pvdz                5        9   3s2p


                      Basis "cd basis" -> "cd basis" (cartesian)
                      -----
  O (Oxygen)
  ----------
            Exponent  Coefficients 
       -------------- ---------------------------------------------------------
  1 S  2.56600000E+03  1.000000
 
  2 S  5.70000000E+02  1.000000
 
  3 S  1.63000000E+02  1.000000
 
  4 S  4.65000000E+01  1.000000
 
  5 S  1.70000000E+01  1.000000
 
  6 P  1.70000000E+01  1.000000
 
  7 S  3.80000000E+00  1.000000
 
  8 P  3.80000000E+00  1.000000
 
  9 S  1.08000000E+00  1.000000
 
 10 P  1.08000000E+00  1.000000
 
 11 S  3.10000000E-01  1.000000
 
 12 P  3.10000000E-01  1.000000
 
 13 D  1.70000000E+01  1.000000
 
 14 D  3.80000000E+00  1.000000
 
 15 D  1.08000000E+00  1.000000
 
 16 D  3.10000000E-01  1.000000
 
  H (Hydrogen)
  ------------
            Exponent  Coefficients 
       -------------- ---------------------------------------------------------
  1 S  4.50000000E+01  1.000000
 
  2 S  7.50000000E+00  1.000000
 
  3 S  3.00000000E-01  1.000000
 
  4 S  1.50000000E+00  1.000000
 
  5 P  1.50000000E+00  1.000000
 
  6 D  1.50000000E+00  1.000000
 


 Summary of "cd basis" -> "cd basis" (cartesian)
 ------------------------------------------------------------------------------
       Tag                 Description            Shells   Functions and Types
 ---------------- ------------------------------  ------  ---------------------
 O                DGauss A2 DFT Coulomb Fitting     16       44   8s4p4d
 H                DGauss A2 DFT Coulomb Fitting      6       13   4s1p1d




 Summary of "ao basis" -> "ao basis" (spherical)
 ------------------------------------------------------------------------------
       Tag                 Description            Shells   Functions and Types
 ---------------- ------------------------------  ------  ---------------------
 O                        aug-cc-pvdz                9       23   4s3p2d
 H                        aug-cc-pvdz                5        9   3s2p


      Symmetry analysis of basis
      --------------------------
 
        a1         18
        a2          4
        b1         12
        b2          7
 
  int_init: cando_txs set to always be  F
  Caching 1-el integrals 
 
            General Information
            -------------------
          SCF calculation type: DFT
          Wavefunction type:  closed shell.
          No. of atoms     :     3
          No. of electrons :    10
           Alpha electrons :     5
            Beta electrons :     5
          Charge           :     0
          Spin multiplicity:     1
          Use of symmetry is: on ; symmetry adaption is: on 
          Maximum number of iterations: 100
          This is a Direct SCF calculation.
          AO basis - number of functions:    41
                     number of shells:    19
          A Charge density fitting basis will be used.
          CD basis - number of functions:    70
                     number of shells:    28
          Convergence on energy requested: 1.00D-06
          Convergence on density requested: 1.00D-05
          Convergence on gradient requested: 5.00D-04
 
              XC Information
              --------------
                     Hartree-Fock (Exact) Exchange  1.000          
                   CAM-Becke88 Exchange Functional  1.000          
                      VWN V Correlation Functional  0.190 local    
              Lee-Yang-Parr Correlation Functional  0.810          
 
           Range-Separation Parameters        
           ---------------------------
           Alpha           :  0.19
           Beta            :  0.46
           Gamma           :  0.33
           Short-Range HF  :     F
 
             Grid Information
             ----------------
          Grid used for XC integration:  medium    
          Radial quadrature: Mura-Knowles        
          Angular quadrature: Lebedev. 
          Tag              B.-S. Rad. Rad. Pts. Rad. Cut. Ang. Pts.
          ---              ---------- --------- --------- ---------
          O                   0.60       49           9.0       434
          H                   0.35       45          11.0       434
          Grid pruning is: on 
          Number of quadrature shells:    94
          Spatial weights used:  Erf1
 
          Convergence Information
          -----------------------
          Convergence aids based upon iterative change in 
          total energy or number of iterations. 
          Levelshifting, if invoked, occurs when the 
          HOMO/LUMO gap drops below (HL_TOL): 1.00D-02
          DIIS, if invoked, will attempt to extrapolate 
          using up to (NFOCK): 10 stored Fock matrices.

                    Damping( 0%)  Levelshifting(0.5)       DIIS
                  --------------- ------------------- ---------------
          dE  on:    start            ASAP                start   
          dE off:    2 iters        100 iters           100 iters 

 
      Screening Tolerance Information
      -------------------------------
          Density screening/tol_rho: 1.00D-10
          AO Gaussian exp screening on grid/accAOfunc:  14
          CD Gaussian exp screening on grid/accCDfunc:  20
          XC Gaussian exp screening on grid/accXCfunc:  20
          Schwarz screening/accCoul: 1.00D-08

 
      Superposition of Atomic Density Guess
      -------------------------------------
 
 Sum of atomic energies:         -75.76548395
 
      Non-variational initial energy
      ------------------------------

 Total energy =     -75.929554
 1-e energy   =    -121.647436
 2-e energy   =      36.525787
 HOMO         =      -0.482989
 LUMO         =       0.012026
 
 
      Symmetry analysis of molecular orbitals - initial
      -------------------------------------------------
 
  Numbering of irreducible representations: 
 
     1 a1          2 a2          3 b1          4 b2      
 
  Orbital symmetries:
 
     1 a1          2 a1          3 b1          4 a1          5 b2      
     6 a1          7 b1          8 a1          9 b2         10 a1      
    11 b1         12 b1         13 a1         14 a2         15 a1      
 
   Time after variat. SCF:      4.6
 
      3 Center 2 Electron Integral Information
      ----------------------------------------
          Maximum number of 3-center 2e- integrals is:          117670.
            This is reduced with Schwarz screening to:           92260.
            Incore requires a per proc buffer size of:          155099.
                  The minimum integral buffer size is:           37030
  dft_n3cint0                      0  nctr0                      3
  dft_n3cint                      3  nctr                      3
          Minimum dble words available (all nodes) is:        26213228
                   This is reduced (for later use) to:        26005443
                             Suggested buffer size is:          155099
                              no. integral batches is:            1000

          Incore memory use for 3-center 2e- integrals is turned off. 
   Time prior to 1st pass:      4.6

 Grid_pts file          = ./h2o-camb3lyp-pol-cdfit.gridpts.00
 Record size in doubles =  12289        No. of grid_pts per rec  =   3070
 Max. records in memory =      2        Max. recs in file   = 417385884


           Memory utilization after 1st SCF pass: 
           Heap Space remaining (MW):       13.08            13081684
          Stack Space remaining (MW):       13.11            13106812

   convergence    iter        energy       DeltaE   RMS-Dens  Diis-err    time
 ---------------- ----- ----------------- --------- --------- ---------  ------
 d= 0,ls=0.0,diis     1    -76.3785817548 -8.56D+01  1.55D-02  3.56D-01     4.8
 d= 0,ls=0.0,diis     2    -76.3799005272 -1.32D-03  5.93D-03  4.12D-01     4.8
 d= 0,ls=0.0,diis     3    -76.4159113350 -3.60D-02  7.62D-04  5.59D-03     4.9
 d= 0,ls=0.0,diis     4    -76.4164275866 -5.16D-04  1.32D-04  8.63D-05     4.9
 d= 0,ls=0.0,diis     5    -76.4164369105 -9.32D-06  3.20D-05  1.01D-06     5.0
 d= 0,ls=0.0,diis     6    -76.4164371593 -2.49D-07  4.28D-06  9.18D-09     5.0


         Total DFT energy =      -76.416437159334
      One electron energy =     -122.944921603243
           Coulomb energy =       46.631668965731
    Exchange-Corr. energy =       -9.295279190479
 Nuclear repulsion energy =        9.192094668657

 Numeric. integr. density =        9.999999201656

     Total iterative time =      0.4s


 
                  Occupations of the irreducible representations
                  ----------------------------------------------
 
                     irrep           alpha         beta
                     --------     --------     --------
                     a1                3.0          3.0
                     a2                0.0          0.0
                     b1                1.0          1.0
                     b2                1.0          1.0
 
 
                       DFT Final Molecular Orbital Analysis
                       ------------------------------------
 
 Vector    1  Occ=2.000000D+00  E=-1.923171D+01  Symmetry=a1
              MO Center= -9.6D-18,  2.6D-22,  1.2D-01, r^2= 1.5D-02
   Bfn.  Coefficient  Atom+Function         Bfn.  Coefficient  Atom+Function  
  ----- ------------  ---------------      ----- ------------  ---------------
     1      1.004443  1 O  s          
 
 Vector    2  Occ=2.000000D+00  E=-1.103200D+00  Symmetry=a1
              MO Center= -9.0D-17,  8.9D-17, -8.0D-02, r^2= 5.0D-01
   Bfn.  Coefficient  Atom+Function         Bfn.  Coefficient  Atom+Function  
  ----- ------------  ---------------      ----- ------------  ---------------
     2      0.447689  1 O  s                  3      0.344389  1 O  s          
    24      0.216827  2 H  s                 33      0.216827  3 H  s          
 
 Vector    3  Occ=2.000000D+00  E=-6.089556D-01  Symmetry=b1
              MO Center=  4.7D-16,  1.8D-31, -9.4D-02, r^2= 7.7D-01
   Bfn.  Coefficient  Atom+Function         Bfn.  Coefficient  Atom+Function  
  ----- ------------  ---------------      ----- ------------  ---------------
     5      0.517810  1 O  px                24      0.361300  2 H  s          
    33     -0.361300  3 H  s          
 
 Vector    4  Occ=2.000000D+00  E=-4.674400D-01  Symmetry=a1
              MO Center=  5.9D-17,  6.4D-16,  1.8D-01, r^2= 7.4D-01
   Bfn.  Coefficient  Atom+Function         Bfn.  Coefficient  Atom+Function  
  ----- ------------  ---------------      ----- ------------  ---------------
     7      0.554749  1 O  pz                 3      0.330383  1 O  s          
    10      0.293387  1 O  pz                24     -0.207032  2 H  s          
    33     -0.207032  3 H  s                  2      0.164531  1 O  s          
 
 Vector    5  Occ=2.000000D+00  E=-3.914637D-01  Symmetry=b2
              MO Center=  1.2D-16, -1.1D-15,  7.2D-02, r^2= 7.2D-01
   Bfn.  Coefficient  Atom+Function         Bfn.  Coefficient  Atom+Function  
  ----- ------------  ---------------      ----- ------------  ---------------
     6      0.634239  1 O  py                 9      0.416324  1 O  py         
 
 Vector    6  Occ=0.000000D+00  E= 3.535738D-03  Symmetry=a1
              MO Center=  8.9D-16,  1.0D-15, -7.7D-01, r^2= 8.9D+00
   Bfn.  Coefficient  Atom+Function         Bfn.  Coefficient  Atom+Function  
  ----- ------------  ---------------      ----- ------------  ---------------
     4      0.896566  1 O  s                 26     -0.670296  2 H  s          
    35     -0.670296  3 H  s                 25     -0.338213  2 H  s          
    34     -0.338213  3 H  s                  3      0.245402  1 O  s          
 
 Vector    7  Occ=0.000000D+00  E= 4.056634D-02  Symmetry=b1
              MO Center=  1.2D-14,  3.0D-16, -7.7D-01, r^2= 1.4D+01
   Bfn.  Coefficient  Atom+Function         Bfn.  Coefficient  Atom+Function  
  ----- ------------  ---------------      ----- ------------  ---------------
    26      2.702486  2 H  s                 35     -2.702486  3 H  s          
    11     -0.653857  1 O  px                25      0.474810  2 H  s          
    34     -0.474810  3 H  s                  8     -0.152075  1 O  px         
 
 Vector    8  Occ=0.000000D+00  E= 1.292570D-01  Symmetry=a1
              MO Center=  9.8D-15,  2.8D-15,  2.2D-01, r^2= 9.1D+00
   Bfn.  Coefficient  Atom+Function         Bfn.  Coefficient  Atom+Function  
  ----- ------------  ---------------      ----- ------------  ---------------
     4      3.836487  1 O  s                 13     -1.595600  1 O  pz         
    25     -1.413303  2 H  s                 34     -1.413303  3 H  s          
    26     -0.777243  2 H  s                 35     -0.777243  3 H  s          
    30      0.331504  2 H  px                39     -0.331504  3 H  px         
     3      0.264135  1 O  s                  7      0.235902  1 O  pz         
 
 Vector    9  Occ=0.000000D+00  E= 1.514705D-01  Symmetry=b2
              MO Center= -3.7D-16,  7.9D-15,  3.2D-01, r^2= 6.2D+00
   Bfn.  Coefficient  Atom+Function         Bfn.  Coefficient  Atom+Function  
  ----- ------------  ---------------      ----- ------------  ---------------
    12      1.359367  1 O  py                 9     -0.258213  1 O  py         
     6     -0.224053  1 O  py                31     -0.215591  2 H  py         
    40     -0.215591  3 H  py         
 
 Vector   10  Occ=0.000000D+00  E= 1.650331D-01  Symmetry=a1
              MO Center= -4.5D-14,  2.2D-16, -8.0D-02, r^2= 7.5D+00
   Bfn.  Coefficient  Atom+Function         Bfn.  Coefficient  Atom+Function  
  ----- ------------  ---------------      ----- ------------  ---------------
     4      1.657384  1 O  s                 13      0.859452  1 O  pz         
    26     -0.592898  2 H  s                 35     -0.592898  3 H  s          
    32     -0.347246  2 H  pz                41     -0.347246  3 H  pz         
    30      0.325178  2 H  px                39     -0.325178  3 H  px         
     2     -0.186845  1 O  s                  3     -0.180127  1 O  s          
 
 Vector   11  Occ=0.000000D+00  E= 1.856776D-01  Symmetry=b1
              MO Center=  1.6D-14,  1.6D-28, -4.3D-01, r^2= 1.0D+01
   Bfn.  Coefficient  Atom+Function         Bfn.  Coefficient  Atom+Function  
  ----- ------------  ---------------      ----- ------------  ---------------
    26      2.810061  2 H  s                 35     -2.810061  3 H  s          
    11     -2.410501  1 O  px                25      1.751245  2 H  s          
    34     -1.751245  3 H  s                 30     -0.592016  2 H  px         
    39     -0.592016  3 H  px                32      0.566084  2 H  pz         
    41     -0.566084  3 H  pz                 5      0.293401  1 O  px         
 
 Vector   12  Occ=0.000000D+00  E= 2.153652D-01  Symmetry=b1
              MO Center= -1.0D-14, -2.4D-16,  2.0D-01, r^2= 4.9D+00
   Bfn.  Coefficient  Atom+Function         Bfn.  Coefficient  Atom+Function  
  ----- ------------  ---------------      ----- ------------  ---------------
    11      1.911015  1 O  px                25     -1.824798  2 H  s          
    34      1.824798  3 H  s                 26     -0.665791  2 H  s          
    35      0.665791  3 H  s                  8      0.333135  1 O  px         
    32      0.224685  2 H  pz                41     -0.224685  3 H  pz         
    24     -0.197588  2 H  s                 33      0.197588  3 H  s          
 
 Vector   13  Occ=0.000000D+00  E= 2.634544D-01  Symmetry=a1
              MO Center=  8.0D-15, -1.6D-14, -1.6D-01, r^2= 4.7D+00
   Bfn.  Coefficient  Atom+Function         Bfn.  Coefficient  Atom+Function  
  ----- ------------  ---------------      ----- ------------  ---------------
     4      4.578425  1 O  s                 25     -2.324004  2 H  s          
    34     -2.324004  3 H  s                 13     -0.595950  1 O  pz         
    32     -0.491880  2 H  pz                41     -0.491880  3 H  pz         
    26     -0.337240  2 H  s                 35     -0.337240  3 H  s          
    30     -0.312719  2 H  px                39      0.312719  3 H  px         
 
 Vector   14  Occ=0.000000D+00  E= 3.169157D-01  Symmetry=a2
              MO Center=  3.3D-16, -6.5D-17, -5.1D-01, r^2= 3.9D+00
   Bfn.  Coefficient  Atom+Function         Bfn.  Coefficient  Atom+Function  
  ----- ------------  ---------------      ----- ------------  ---------------
    31      1.115168  2 H  py                40     -1.115168  3 H  py         
 
 Vector   15  Occ=0.000000D+00  E= 3.311903D-01  Symmetry=a1
              MO Center=  2.4D-14,  5.1D-15, -1.4D-01, r^2= 4.9D+00
   Bfn.  Coefficient  Atom+Function         Bfn.  Coefficient  Atom+Function  
  ----- ------------  ---------------      ----- ------------  ---------------
     4      4.588137  1 O  s                 25     -2.369385  2 H  s          
    34     -2.369385  3 H  s                 13     -1.910842  1 O  pz         
    10     -0.721442  1 O  pz                32      0.650823  2 H  pz         
    41      0.650823  3 H  pz                30      0.390784  2 H  px         
    39     -0.390784  3 H  px                26     -0.341297  2 H  s          
 
 Vector   16  Occ=0.000000D+00  E= 3.608310D-01  Symmetry=b2
              MO Center= -2.8D-16,  9.5D-16, -3.8D-01, r^2= 4.2D+00
   Bfn.  Coefficient  Atom+Function         Bfn.  Coefficient  Atom+Function  
  ----- ------------  ---------------      ----- ------------  ---------------
    12      1.228822  1 O  py                31     -1.181506  2 H  py         
    40     -1.181506  3 H  py                 9      0.603702  1 O  py         
     6      0.171683  1 O  py         
 
 Vector   17  Occ=0.000000D+00  E= 4.758346D-01  Symmetry=b1
              MO Center=  2.9D-15,  2.6D-30, -3.9D-01, r^2= 5.3D+00
   Bfn.  Coefficient  Atom+Function         Bfn.  Coefficient  Atom+Function  
  ----- ------------  ---------------      ----- ------------  ---------------
    11      2.189657  1 O  px                30     -2.075229  2 H  px         
    39     -2.075229  3 H  px                32     -1.161521  2 H  pz         
    41      1.161521  3 H  pz                26     -0.950602  2 H  s          
    35      0.950602  3 H  s                 25      0.862535  2 H  s          
    34     -0.862535  3 H  s                  8      0.221932  1 O  px         
 
 Vector   18  Occ=0.000000D+00  E= 5.486544D-01  Symmetry=a1
              MO Center= -2.9D-15, -3.2D-16, -6.1D-01, r^2= 4.8D+00
   Bfn.  Coefficient  Atom+Function         Bfn.  Coefficient  Atom+Function  
  ----- ------------  ---------------      ----- ------------  ---------------
     4      5.389803  1 O  s                 25     -3.021326  2 H  s          
    34     -3.021326  3 H  s                  3      2.566398  1 O  s          
    30      1.304271  2 H  px                39     -1.304271  3 H  px         
    32     -1.152267  2 H  pz                41     -1.152267  3 H  pz         
    26     -0.575862  2 H  s                 35     -0.575862  3 H  s          
 

 center of mass
 --------------
 x =   0.00000000 y =   0.00000000 z =   0.09760123

 moments of inertia (a.u.)
 ------------------
           2.197735387303           0.000000000000           0.000000000000
           0.000000000000           6.322357589609           0.000000000000
           0.000000000000           0.000000000000           4.124622202307
 
     Multipole analysis of the density
     ---------------------------------
 
     L   x y z        total         alpha         beta         nuclear
     -   - - -        -----         -----         ----         -------
     0   0 0 0     -0.000000     -5.000000     -5.000000     10.000000
 
     1   1 0 0      0.000000      0.000000      0.000000      0.000000
     1   0 1 0     -0.000000     -0.000000     -0.000000      0.000000
     1   0 0 1     -0.744885     -0.372443     -0.372443      0.000000
 
     2   2 0 0     -3.378710     -3.735654     -3.735654      4.092598
     2   1 1 0     -0.000000     -0.000000     -0.000000      0.000000
     2   1 0 1      0.000000      0.000000      0.000000      0.000000
     2   0 2 0     -5.816386     -2.908193     -2.908193      0.000000
     2   0 1 1     -0.000000     -0.000000     -0.000000      0.000000
     2   0 0 2     -4.842069     -3.403225     -3.403225      1.964381
 

 Task  times  cpu:        1.5s     wall:        3.3s
 
 
                                NWChem Input Module
                                -------------------
 
 
                              NWChem Property Module
                              ----------------------
 
 
 
                                 NWChem DFT Module
                                 -----------------
 
 


 Summary of "ao basis" -> "ao basis" (spherical)
 ------------------------------------------------------------------------------
       Tag                 Description            Shells   Functions and Types
 ---------------- ------------------------------  ------  ---------------------
 O                        aug-cc-pvdz                9       23   4s3p2d
 H                        aug-cc-pvdz                5        9   3s2p


  int_init: cando_txs set to always be  F
  Caching 1-el integrals 
 
            General Information
            -------------------
          SCF calculation type: DFT
          Wavefunction type:  closed shell.
          No. of atoms     :     3
          No. of electrons :    10
           Alpha electrons :     5
            Beta electrons :     5
          Charge           :     0
          Spin multiplicity:     1
          Use of symmetry is: off; symmetry adaption is: off
          Maximum number of iterations: 100
          This is a Direct SCF calculation.
          AO basis - number of functions:    41
                     number of shells:    19
          A Charge density fitting basis will be used.
          CD basis - number of functions:    70
                     number of shells:    28
          Convergence on energy requested: 1.00D-06
          Convergence on density requested: 1.00D-05
          Convergence on gradient requested: 5.00D-04
 
              XC Information
              --------------
                     Hartree-Fock (Exact) Exchange  1.000          
                   CAM-Becke88 Exchange Functional  1.000          
                      VWN V Correlation Functional  0.190 local    
              Lee-Yang-Parr Correlation Functional  0.810          
 
           Range-Separation Parameters        
           ---------------------------
           Alpha           :  0.19
           Beta            :  0.46
           Gamma           :  0.33
           Short-Range HF  :     F
 
             Grid Information
             ----------------
          Grid used for XC integration:  medium    
          Radial quadrature: Mura-Knowles        
          Angular quadrature: Lebedev. 
          Tag              B.-S. Rad. Rad. Pts. Rad. Cut. Ang. Pts.
          ---              ---------- --------- --------- ---------
          O                   0.60       49           9.0       434
          H                   0.35       45          11.0       434
          Grid pruning is: on 
          Number of quadrature shells:   139
          Spatial weights used:  Erf1
 
          Convergence Information
          -----------------------
          Convergence aids based upon iterative change in 
          total energy or number of iterations. 
          Levelshifting, if invoked, occurs when the 
          HOMO/LUMO gap drops below (HL_TOL): 1.00D-02
          DIIS, if invoked, will attempt to extrapolate 
          using up to (NFOCK): 10 stored Fock matrices.

                    Damping( 0%)  Levelshifting(0.5)       DIIS
                  --------------- ------------------- ---------------
          dE  on:    start            ASAP                start   
          dE off:    2 iters        100 iters           100 iters 

 
      Screening Tolerance Information
      -------------------------------
          Density screening/tol_rho: 1.00D-10
          AO Gaussian exp screening on grid/accAOfunc:  14
          CD Gaussian exp screening on grid/accCDfunc:  20
          XC Gaussian exp screening on grid/accXCfunc:  20
          Schwarz screening/accCoul: 1.00D-08


 Loading old vectors from job with title :



   Time after variat. SCF:      5.1
 
      3 Center 2 Electron Integral Information
      ----------------------------------------
          Maximum number of 3-center 2e- integrals is:          117670.
            This is reduced with Schwarz screening to:           92260.
            Incore requires a per proc buffer size of:          155099.
                  The minimum integral buffer size is:           37030
  dft_n3cint0                      0  nctr0                      3
  dft_n3cint                      3  nctr                      3
          Minimum dble words available (all nodes) is:        26213228
                   This is reduced (for later use) to:        25930795
                             Suggested buffer size is:          155099
                              no. integral batches is:            1000

          Incore memory use for 3-center 2e- integrals is turned off. 
   Time prior to 1st pass:      5.1

 Grid_pts file          = ./h2o-camb3lyp-pol-cdfit.gridpts.00
 Record size in doubles =  12289        No. of grid_pts per rec  =   3070
 Max. records in memory =      2        Max. recs in file   = 417384932


           Memory utilization after 1st SCF pass: 
           Heap Space remaining (MW):       13.08            13081684
          Stack Space remaining (MW):       13.11            13106812

   convergence    iter        energy       DeltaE   RMS-Dens  Diis-err    time
 ---------------- ----- ----------------- --------- --------- ---------  ------
 d= 0,ls=0.0,diis     1    -76.4164371633 -8.56D+01  3.46D-07  1.57D-10     5.2
 d= 0,ls=0.0,diis     2    -76.4164371633 -6.03D-11  1.19D-07  4.46D-11     5.3


         Total DFT energy =      -76.416437163330
      One electron energy =     -122.944822018146
           Coulomb energy =       46.631552834554
    Exchange-Corr. energy =       -9.295262648395
 Nuclear repulsion energy =        9.192094668657

 Numeric. integr. density =        9.999999201598

     Total iterative time =      0.2s


 
                       DFT Final Molecular Orbital Analysis
                       ------------------------------------
 
 Vector    1  Occ=2.000000D+00  E=-1.923171D+01
              MO Center=  1.6D-16,  1.8D-19,  1.2D-01, r^2= 1.5D-02
   Bfn.  Coefficient  Atom+Function         Bfn.  Coefficient  Atom+Function  
  ----- ------------  ---------------      ----- ------------  ---------------
     1      1.004443  1 O  s          
 
 Vector    2  Occ=2.000000D+00  E=-1.103200D+00
              MO Center=  2.7D-13, -1.4D-16, -8.0D-02, r^2= 5.0D-01
   Bfn.  Coefficient  Atom+Function         Bfn.  Coefficient  Atom+Function  
  ----- ------------  ---------------      ----- ------------  ---------------
     2      0.447689  1 O  s                  3      0.344388  1 O  s          
    24      0.216828  2 H  s                 33      0.216828  3 H  s          
 
 Vector    3  Occ=2.000000D+00  E=-6.089562D-01
              MO Center= -1.1D-13, -1.5D-17, -9.4D-02, r^2= 7.7D-01
   Bfn.  Coefficient  Atom+Function         Bfn.  Coefficient  Atom+Function  
  ----- ------------  ---------------      ----- ------------  ---------------
     5      0.517810  1 O  px                24      0.361300  2 H  s          
    33     -0.361300  3 H  s          
 
 Vector    4  Occ=2.000000D+00  E=-4.674409D-01
              MO Center=  7.2D-14, -1.4D-15,  1.8D-01, r^2= 7.4D-01
   Bfn.  Coefficient  Atom+Function         Bfn.  Coefficient  Atom+Function  
  ----- ------------  ---------------      ----- ------------  ---------------
     7      0.554752  1 O  pz                 3      0.330381  1 O  s          
    10      0.293387  1 O  pz                24     -0.207031  2 H  s          
    33     -0.207031  3 H  s                  2      0.164530  1 O  s          
 
 Vector    5  Occ=2.000000D+00  E=-3.914637D-01
              MO Center=  6.3D-14,  1.4D-15,  7.2D-02, r^2= 7.2D-01
   Bfn.  Coefficient  Atom+Function         Bfn.  Coefficient  Atom+Function  
  ----- ------------  ---------------      ----- ------------  ---------------
     6      0.634238  1 O  py                 9      0.416323  1 O  py         
 
 Vector    6  Occ=0.000000D+00  E= 3.535354D-03
              MO Center=  3.0D-12, -2.4D-16, -7.7D-01, r^2= 8.9D+00
   Bfn.  Coefficient  Atom+Function         Bfn.  Coefficient  Atom+Function  
  ----- ------------  ---------------      ----- ------------  ---------------
     4      0.896575  1 O  s                 26     -0.670297  2 H  s          
    35     -0.670297  3 H  s                 25     -0.338217  2 H  s          
    34     -0.338217  3 H  s                  3      0.245405  1 O  s          
 
 Vector    7  Occ=0.000000D+00  E= 4.056574D-02
              MO Center= -3.0D-12, -9.8D-17, -7.7D-01, r^2= 1.4D+01
   Bfn.  Coefficient  Atom+Function         Bfn.  Coefficient  Atom+Function  
  ----- ------------  ---------------      ----- ------------  ---------------
    26      2.702496  2 H  s                 35     -2.702496  3 H  s          
    11     -0.653867  1 O  px                25      0.474820  2 H  s          
    34     -0.474820  3 H  s                  8     -0.152076  1 O  px         
 
 Vector    8  Occ=0.000000D+00  E= 1.292565D-01
              MO Center=  1.6D-12,  1.9D-15,  2.2D-01, r^2= 9.1D+00
   Bfn.  Coefficient  Atom+Function         Bfn.  Coefficient  Atom+Function  
  ----- ------------  ---------------      ----- ------------  ---------------
     4      3.836517  1 O  s                 13     -1.595586  1 O  pz         
    25     -1.413303  2 H  s                 34     -1.413303  3 H  s          
    26     -0.777253  2 H  s                 35     -0.777253  3 H  s          
    30      0.331509  2 H  px                39     -0.331509  3 H  px         
     3      0.264133  1 O  s                  7      0.235900  1 O  pz         
 
 Vector    9  Occ=0.000000D+00  E= 1.514707D-01
              MO Center=  2.0D-13,  4.9D-16,  3.2D-01, r^2= 6.2D+00
   Bfn.  Coefficient  Atom+Function         Bfn.  Coefficient  Atom+Function  
  ----- ------------  ---------------      ----- ------------  ---------------
    12      1.359367  1 O  py                 9     -0.258215  1 O  py         
     6     -0.224054  1 O  py                31     -0.215590  2 H  py         
    40     -0.215590  3 H  py         
 
 Vector   10  Occ=0.000000D+00  E= 1.650333D-01
              MO Center=  4.8D-12, -4.4D-17, -7.9D-02, r^2= 7.5D+00
   Bfn.  Coefficient  Atom+Function         Bfn.  Coefficient  Atom+Function  
  ----- ------------  ---------------      ----- ------------  ---------------
     4      1.657304  1 O  s                 13      0.859480  1 O  pz         
    26     -0.592884  2 H  s                 35     -0.592884  3 H  s          
    32     -0.347242  2 H  pz                41     -0.347242  3 H  pz         
    30      0.325175  2 H  px                39     -0.325175  3 H  px         
     2     -0.186844  1 O  s                  3     -0.180132  1 O  s          
 
 Vector   11  Occ=0.000000D+00  E= 1.856771D-01
              MO Center= -5.7D-12, -8.3D-16, -4.3D-01, r^2= 1.0D+01
   Bfn.  Coefficient  Atom+Function         Bfn.  Coefficient  Atom+Function  
  ----- ------------  ---------------      ----- ------------  ---------------
    26      2.810048  2 H  s                 35     -2.810048  3 H  s          
    11     -2.410481  1 O  px                25      1.751230  2 H  s          
    34     -1.751230  3 H  s                 30     -0.592019  2 H  px         
    39     -0.592019  3 H  px                32      0.566089  2 H  pz         
    41     -0.566089  3 H  pz                 5      0.293403  1 O  px         
 
 Vector   12  Occ=0.000000D+00  E= 2.153651D-01
              MO Center= -2.3D-14,  1.1D-16,  2.0D-01, r^2= 4.9D+00
   Bfn.  Coefficient  Atom+Function         Bfn.  Coefficient  Atom+Function  
  ----- ------------  ---------------      ----- ------------  ---------------
    11      1.911040  1 O  px                25     -1.824822  2 H  s          
    34      1.824822  3 H  s                 26     -0.665819  2 H  s          
    35      0.665819  3 H  s                  8      0.333136  1 O  px         
    32      0.224680  2 H  pz                41     -0.224680  3 H  pz         
    24     -0.197588  2 H  s                 33      0.197588  3 H  s          
 
 Vector   13  Occ=0.000000D+00  E= 2.634541D-01
              MO Center=  1.7D-13, -9.9D-16, -1.6D-01, r^2= 4.7D+00
   Bfn.  Coefficient  Atom+Function         Bfn.  Coefficient  Atom+Function  
  ----- ------------  ---------------      ----- ------------  ---------------
     4      4.578418  1 O  s                 25     -2.323996  2 H  s          
    34     -2.323996  3 H  s                 13     -0.595941  1 O  pz         
    32     -0.491881  2 H  pz                41     -0.491881  3 H  pz         
    26     -0.337240  2 H  s                 35     -0.337240  3 H  s          
    30     -0.312719  2 H  px                39      0.312719  3 H  px         
 
 Vector   14  Occ=0.000000D+00  E= 3.169152D-01
              MO Center=  1.6D-12,  1.9D-15, -5.1D-01, r^2= 3.9D+00
   Bfn.  Coefficient  Atom+Function         Bfn.  Coefficient  Atom+Function  
  ----- ------------  ---------------      ----- ------------  ---------------
    31      1.115168  2 H  py                40     -1.115168  3 H  py         
 
 Vector   15  Occ=0.000000D+00  E= 3.311899D-01
              MO Center= -1.2D-13,  1.3D-16, -1.4D-01, r^2= 4.9D+00
   Bfn.  Coefficient  Atom+Function         Bfn.  Coefficient  Atom+Function  
  ----- ------------  ---------------      ----- ------------  ---------------
     4      4.588157  1 O  s                 25     -2.369394  2 H  s          
    34     -2.369394  3 H  s                 13     -1.910845  1 O  pz         
    10     -0.721443  1 O  pz                32      0.650820  2 H  pz         
    41      0.650820  3 H  pz                30      0.390787  2 H  px         
    39     -0.390787  3 H  px                26     -0.341299  2 H  s          
 
 Vector   16  Occ=0.000000D+00  E= 3.608306D-01
              MO Center= -1.8D-12, -1.2D-15, -3.8D-01, r^2= 4.2D+00
   Bfn.  Coefficient  Atom+Function         Bfn.  Coefficient  Atom+Function  
  ----- ------------  ---------------      ----- ------------  ---------------
    12      1.228823  1 O  py                31     -1.181506  2 H  py         
    40     -1.181506  3 H  py                 9      0.603703  1 O  py         
     6      0.171684  1 O  py         
 
 Vector   17  Occ=0.000000D+00  E= 4.758342D-01
              MO Center= -5.7D-13, -3.3D-16, -3.9D-01, r^2= 5.3D+00
   Bfn.  Coefficient  Atom+Function         Bfn.  Coefficient  Atom+Function  
  ----- ------------  ---------------      ----- ------------  ---------------
    11      2.189652  1 O  px                30     -2.075236  2 H  px         
    39     -2.075236  3 H  px                32     -1.161517  2 H  pz         
    41      1.161517  3 H  pz                26     -0.950598  2 H  s          
    35      0.950598  3 H  s                 25      0.862552  2 H  s          
    34     -0.862552  3 H  s                  8      0.221929  1 O  px         
 
 Vector   18  Occ=0.000000D+00  E= 5.486539D-01
              MO Center=  4.5D-12,  4.0D-16, -6.1D-01, r^2= 4.8D+00
   Bfn.  Coefficient  Atom+Function         Bfn.  Coefficient  Atom+Function  
  ----- ------------  ---------------      ----- ------------  ---------------
     4      5.389789  1 O  s                 25     -3.021319  2 H  s          
    34     -3.021319  3 H  s                  3      2.566397  1 O  s          
    30      1.304270  2 H  px                39     -1.304270  3 H  px         
    32     -1.152268  2 H  pz                41     -1.152268  3 H  pz         
    26     -0.575861  2 H  s                 35     -0.575861  3 H  s          
 

 center of mass
 --------------
 x =   0.00000000 y =   0.00000000 z =   0.09760123

 moments of inertia (a.u.)
 ------------------
           2.197735387303           0.000000000000           0.000000000000
           0.000000000000           6.322357589609           0.000000000000
           0.000000000000           0.000000000000           4.124622202307
 
     Multipole analysis of the density
     ---------------------------------
 
     L   x y z        total         alpha         beta         nuclear
     -   - - -        -----         -----         ----         -------
     0   0 0 0     -0.000000     -5.000000     -5.000000     10.000000
 
     1   1 0 0     -0.000000     -0.000000     -0.000000      0.000000
     1   0 1 0      0.000000      0.000000      0.000000      0.000000
     1   0 0 1     -0.744892     -0.372446     -0.372446      0.000000
 
     2   2 0 0     -3.378707     -3.735652     -3.735652      4.092598
     2   1 1 0     -0.000000     -0.000000     -0.000000      0.000000
     2   1 0 1      0.000000      0.000000      0.000000      0.000000
     2   0 2 0     -5.816398     -2.908199     -2.908199      0.000000
     2   0 1 1     -0.000000     -0.000000     -0.000000      0.000000
     2   0 0 2     -4.842052     -3.403216     -3.403216      1.964381
 
 *** CALLING NEW AORESP DRIVER FOR CLOSED AND OPEN SHELLS ***
 Entering AOResponse driver routine


--------------------------------------------------------------------------------

          ****************
          *** RESPONSE ***
          ****************

 Response module for NWChem and dynamic CPKS solver
 developed by J. Autschbach and coworkers, SUNY Buffalo
 The methodology used in this program is described in 
 ChemPhysChem 12 (2011), 3224-3235 (main reference)
 J. Chem. Phys. 123 (2005), 114103
 J. Chem. Phys. 122 (2005), 224115
 J. Chem. Phys. 122 (2005), 074105
 Comp. Lett. 3 (2007), 131-150 (contact JA for a copy)
 Please cite this work in publications based on results
 obtained with this code. Thank you!

 For extension of response module to open shell
 calculations please acknowledge:
 F. Aquino, Northwestern University, Schatz Rsrch Group
 The update to the methodology is described in
 J. Phys. Chem. A 118 (2014) 517-525



          -----------------------------------------------
          Solving response equations for perturbing field
          -----------------------------------------------

 number of frequencies:     1
 frequency in a.u.:  0.0000000E+00
 Perturbing field: electric
 Using Dipole Length Gauge
 
 Setting up CPKS with frequency omega =      0.00000000 a.u.

 STATIC response

  int_init: cando_txs set to always be  F
                                NWChem CPHF Module
                                ------------------
 
 
 cphf_solve2.F: bases                   567                   567
  int_init: cando_txs set to always be  F
  scftype          =     RHF 
  nclosed          =        5
  nopen            =        0
  variables        =      180
  # of vectors     =        3
  tolerance        = 0.10D-03
  level shift      = 0.00D+00
  max iterations   =       50
  max subspace     =       30

 SCF residual:   6.029391672249543E-003


Iterative solution of linear equations
  No. of variables      180
  No. of equations        3
  Maximum subspace       30
        Iterations       50
       Convergence  1.0D-04
        Start time     59.8


   iter   nsub   residual    time
   ----  ------  --------  ---------
     1      3    1.37D+00      59.9
     2      6    1.32D+00      60.0
     3      9    1.59D-01      60.1
     4     12    2.00D-02      60.1
     5     15    1.41D-03      60.2
     6     18    1.37D-04      60.2
     7     21    1.37D-05      60.3
  int_init: cando_txs set to always be  F

 Electric Dipole Response Matrix (nonzero elements):

              1        2        3      
    1    9.8976   0.0000   0.0000
    2   -0.0000   8.7312   0.0000
    3   -0.0000   0.0000   9.1336

 DFT Linear Response polarizability / au 
 Frequency  =       0.0000000 / au
 Wavelength =        Infinity / nm
              X              Y              Z
 -----------------------------------------------
 X       9.8976486      0.0000000      0.0000000
 Y      -0.0000000      8.7311763      0.0000000
 Z      -0.0000000      0.0000000      9.1335740
 -----------------------------------------------
 Eigenvalues =       9.8976486      8.7311763      9.1335740
 Isotropic   =       9.2541330
 Anisotropic =       0.8379322
 -----------------------------------------------
 
 average:    9.25413299388470       + I   0.000000000000000E+000
 
 Magnetic Dipole Response Matrix (nonzero elements):
 Optical rotation tensor G' 

              1        2        3      
    1    0.0000   0.1425  -0.0000
    2    0.0470  -0.0000   0.0000
    3    0.0000  -0.0000   0.0000
 average:   6.796159616278626E-015  + I   0.000000000000000E+000
 
 Exiting AOResponse driver routine

          -------------
          Dipole Moment
          -------------
  int_init: cando_txs set to always be  F

 Center of mass (in au) is the expansion point
         X =       0.0000000 Y =       0.0000000 Z =       0.0976012

   Dipole moment        0.7448923615 A.U.
             DMX       -0.0000000000 DMXEFC        0.0000000000
             DMY        0.0000000000 DMYEFC        0.0000000000
             DMZ       -0.7448923615 DMZEFC        0.0000000000
   -EFC- dipole         0.0000000000 A.U.
   Total dipole         0.7448923615 A.U.

   Dipole moment        1.8933418397 Debye(s)
             DMX       -0.0000000000 DMXEFC        0.0000000000
             DMY        0.0000000000 DMYEFC        0.0000000000
             DMZ       -1.8933418397 DMZEFC        0.0000000000
   -EFC- dipole         0.0000000000 DEBYE(S)
   Total dipole         1.8933418397 DEBYE(S)

 1 a.u. = 2.541766 Debyes 

 Task  times  cpu:        0.9s     wall:        1.9s
 
 
                                NWChem Input Module
                                -------------------
 
 
 Summary of allocated global arrays
-----------------------------------
  No active global arrays



                         GA Statistics for process    0
                         ------------------------------

       create   destroy   get      put      acc     scatter   gather  read&inc
calls:  723      723     1.37e+04 2579     5951      125        0      434     
number of processes/call 2.52e+00 2.60e+00 2.21e+00 0.00e+00 0.00e+00
bytes total:             9.84e+06 2.14e+06 4.33e+06 4.80e+01 0.00e+00 3.47e+03
bytes remote:            7.09e+06 1.24e+06 3.39e+06 0.00e+00 0.00e+00 0.00e+00
Max memory consumed for GA by this process: 155768 bytes
 
MA_summarize_allocated_blocks: starting scan ...
MA_summarize_allocated_blocks: scan completed: 0 heap blocks, 0 stack blocks
MA usage statistics:

	allocation statistics:
					      heap	     stack
					      ----	     -----
	current number of blocks	         0	         0
	maximum number of blocks	        26	        57
	current total bytes		         0	         0
	maximum total bytes		    204120	  22511528
	maximum total K-bytes		       205	     22512
	maximum total M-bytes		         1	        23
 
 
                                     CITATION
                                     --------
                Please cite the following reference when publishing
                           results obtained with NWChem:
 
                 M. Valiev, E.J. Bylaska, N. Govind, K. Kowalski,
              T.P. Straatsma, H.J.J. van Dam, D. Wang, J. Nieplocha,
                        E. Apra, T.L. Windus, W.A. de Jong
                 "NWChem: a comprehensive and scalable open-source
                  solution for large scale molecular simulations"
                      Comput. Phys. Commun. 181, 1477 (2010)
                           doi:10.1016/j.cpc.2010.04.018
 
                                      AUTHORS
                                      -------
          E. Apra, E. J. Bylaska, W. A. de Jong, N. Govind, K. Kowalski,
       T. P. Straatsma, M. Valiev, H. J. J. van Dam, D. Wang, T. L. Windus,
        J. Hammond, J. Autschbach, K. Bhaskaran-Nair, J. Brabec, K. Lopata,
        S. Fischer, S. Krishnamoorthy, W. Ma, M. Klemm, O. Villa, Y. Chen,
    V. Anisimov, F. Aquino, S. Hirata, M. T. Hackler, T. Risthaus, M. Malagoli,
       A. Marenich, A. Otero-de-la-Roza, J. Mullin, P. Nichols, R. Peverati,
     J. Pittner, Y. Zhao, P.-D. Fan, A. Fonari, M. Williamson, R. J. Harrison,
      M. Dupuis, D. Silverstein, D. M. A. Smith, J. Nieplocha, V. Tipparaju,
    M. Krishnan, B. E. Van Kuiken, A. Vazquez-Mayagoitia, L. Jensen, M. Swart,
      Q. Wu, T. Van Voorhis, A. A. Auer, M. Nooijen, L. D. Crosby, E. Brown,
      G. Cisneros, G. I. Fann, H. Fruchtl, J. Garza, K. Hirao, R. A. Kendall,
      J. A. Nichols, K. Tsemekhman, K. Wolinski, J. Anchell, D. E. Bernholdt,
      P. Borowski, T. Clark, D. Clerc, H. Dachsel, M. J. O. Deegan, K. Dyall,
    D. Elwood, E. Glendening, M. Gutowski, A. C. Hess, J. Jaffe, B. G. Johnson,
     J. Ju, R. Kobayashi, R. Kutteh, Z. Lin, R. Littlefield, X. Long, B. Meng,
      T. Nakajima, S. Niu, L. Pollack, M. Rosing, K. Glaesemann, G. Sandrone,
      M. Stave, H. Taylor, G. Thomas, J. H. van Lenthe, A. T. Wong, Z. Zhang.

 Total times  cpu:        5.9s     wall:       60.9s
